# vtk DataFile Version 3.0
VTK output from FreeFEM
ASCII
DATASET UNSTRUCTURED_GRID
POINTS 2305 float
17.89 -0.5 0
17.7178 -0.5 0
17.3743 -0.5 0
17.5459 -0.5 0
17.8038 -0.5 0
17.6318 -0.5 0
17.46 -0.5 0
17.8736 -0.410092 0
18 -0.5 0
17.7341 -0.41385 0
17.3911 -0.430546 0
17.2886 -0.5 0
17.5373 -0.353556 0
17.6128 -0.417114 0
17.4111 -0.347591 0
18 -0.247281 0
17.8312 -0.275986 0
17.655 -0.247797 0
17.2822 -0.409804 0
17.2029 -0.5 0
17.491 -0.248287 0
17.2752 -0.312528 0
17.3709 -0.22623 0
17.1174 -0.5 0
17.0319 -0.5 0
17.5864 -0.129559 0
17.7794 -0.112141 0
18 0.0622359 0
17.2017 -0.409842 0
17.4415 -0.0708895 0
17.2003 -0.3126 0
17.2677 -0.207261 0
17.2884 -0.118994 0
17.1093 -0.409881 0
16.9465 -0.5 0
17.0289 -0.409918 0
17.5921 0.0423265 0
18 1 0
16.6055 -0.5 0
16.5205 -0.5 0
18 0.384824 0
16.8611 -0.5 0
16.4355 -0.5 0
16.7759 -0.5 0
16.6907 -0.5 0
18 0.706738 0
17.8369 0.181987 0
17.1254 -0.312671 0
17.312 -0.0184314 0
17.4611 0.108345 0
17.1299 -0.207466 0
17.1972 -0.093835 0
17.0257 -0.312744 0
16.9486 -0.409958 0
16.8684 -0.409996 0
17.5983 0.230154 0
17.7805 1 0
16.6042 -0.410114 0
16.5123 -0.410153 0
17.8212 0.562619 0
16.7763 -0.410036 0
16.4324 -0.410193 0
16.3506 -0.5 0
16.6962 -0.410074 0
17.7023 0.821824 0
17.3429 0.167916 0
17.5836 0.458532 0
17.0222 -0.207571 0
17.1955 0.0287345 0
17.4528 0.330012 0
17.0808 -0.093962 0
16.9509 -0.31282 0
16.8762 -0.312891 0
16.7767 -0.312968 0
17.5809 1 0
16.5283 -0.313192 0
16.6773 -0.313042 0
16.6027 -0.313114 0
16.429 -0.313265 0
17.5497 0.723408 0
16.3526 -0.410234 0
16.2728 -0.410274 0
16.2657 -0.5 0
17.2313 0.30425 0
17.1458 0.160928 0
16.3547 -0.313343 0
17.4251 0.55943 0
16.9562 -0.0942176 0
16.8847 -0.207783 0
17.0144 0.0284524 0
17.3201 0.421088 0
16.7772 -0.207894 0
17.3814 1 0
16.5327 -0.208216 0
16.4448 -0.208325 0
16.6697 -0.208001 0
16.357 -0.208433 0
17.3486 0.767284 0
16.2804 -0.313419 0
16.1812 -0.410315 0
16.1814 -0.313495 0
16.181 -0.5 0
17.1586 0.458729 0
17.1183 0.304031 0
17.0301 0.160696 0
16.5959 -0.152507 0
17.0053 0.303813 0
17.1871 0.625299 0
16.8399 -0.0943462 0
16.9038 0.0281595 0
16.9145 0.160464 0
16.7508 -0.0944755 0
17.1734 0.805498 0
17.1818 1 0
16.5374 -0.0948658 0
16.4215 -0.094991 0
16.6616 -0.0946049 0
16.2975 -0.0952614 0
16.2693 -0.208543 0
16.1015 -0.410354 0
16.1072 -0.313569 0
16.1816 -0.208652 0
16.0963 -0.5 0
17.031 0.458484 0
16.8924 0.303577 0
15.8427 -0.5 0
16.8191 0.0929171 0
17.0715 0.713521 0
16.0117 -0.5 0
15.9271 -0.5 0
15.7583 -0.5 0
16.9733 0.624973 0
16.723 0.0278642 0
16.7312 0.160152 0
16.7795 0.303342 0
16.9776 0.805377 0
16.9823 1 0
16.5977 0.0277156 0
16.4172 0.0274165 0
16.3072 0.0271064 0
16.1818 -0.0953943 0
16.0101 -0.410394 0
16.0083 -0.313646 0
16.094 -0.208761 0
16.811 0.458076 0
15.8392 -0.410477 0
15.9306 -0.410436 0
15.674 -0.5 0
15.7599 -0.410518 0
15.5056 -0.5 0
16.5047 0.0924306 0
15.4215 -0.5 0
15.5897 -0.5 0
16.8023 0.624868 0
16.5957 0.159994 0
16.6331 0.303189 0
16.6666 0.418073 0
16.7827 1 0
16.7707 0.805188 0
16.4127 0.159678 0
16.3177 0.125752 0
16.1271 0.0268105 0
16.2226 0.0918253 0
16.0662 -0.0955279 0
15.9343 -0.313725 0
16.0064 -0.208869 0
16.702 0.539742 0
15.8603 -0.3138 0
15.7616 -0.313881 0
15.6687 -0.410558 0
15.6877 -0.313959 0
15.4194 -0.410683 0
15.5103 -0.410642 0
15.3375 -0.5 0
15.3404 -0.410726 0
15.5895 -0.410601 0
15.2535 -0.5 0
16.5888 0.624544 0
16.5007 0.302878 0
16.5605 0.457525 0
16.5832 1 0
16.5861 0.805125 0
16.2517 0.211896 0
16.3682 0.302567 0
16.1349 0.159037 0
15.9473 0.0264951 0
16.0414 0.0915074 0
15.9426 -0.0957967 0
15.9189 -0.208983 0
15.8315 -0.209096 0
15.7441 -0.209206 0
15.5892 -0.314037 0
15.6568 -0.209317 0
15.4171 -0.314193 0
15.4907 -0.314114 0
15.3435 -0.314275 0
15.2614 -0.410768 0
15.1707 -0.41081 0
15.1697 -0.5 0
15.0022 -0.5 0
15.0859 -0.5 0
16.3966 0.624329 0
16.3409 0.457104 0
16.3836 1 0
16.3903 0.804999 0
16.1826 0.302253 0
16.2136 0.457104 0
15.9971 0.301949 0
15.9523 0.158701 0
15.8333 0.12457 0
15.8224 0.0263405 0
15.8271 -0.095932 0
15.7038 -0.0962043 0
15.521 -0.209548 0
15.6154 -0.0963417 0
15.4339 -0.209662 0
15.3468 -0.209776 0
15.2452 -0.314355 0
15.0919 -0.410852 0
15.1717 -0.314435 0
15.0983 -0.314515 0
15.0013 -0.410895 0
14.9186 -0.5 0
14.835 -0.5 0
16.2045 0.624116 0
16.1841 1 0
16.1726 0.804742 0
16.025 0.456821 0
15.9033 0.3777 0
15.8449 0.228646 0
15.7129 0.0260294 0
15.7227 0.158208 0
15.527 -0.096479 0
15.4388 -0.0966176 0
15.5882 0.0258728 0
15.3505 -0.0967562 0
15.2405 -0.209891 0
15.2623 -0.096896 0
15.0003 -0.314596 0
15.1536 -0.210007 0
15.0667 -0.210123 0
14.9108 -0.410938 0
14.8322 -0.410981 0
14.7516 -0.5 0
16.0125 0.623897 0
15.9845 1 0
15.977 0.804615 0
15.9072 0.538528 0
15.7333 0.301292 0
15.8059 0.456391 0
15.5878 0.158042 0
15.409 0.025566 0
15.4531 0.157886 0
15.2999 0.0252393 0
15.1741 -0.0970358 0
14.9023 -0.314677 0
14.9317 -0.210357 0
15.0593 -0.0971766 0
14.9942 -0.154882 0
14.7537 -0.411024 0
14.8291 -0.314759 0
14.6682 -0.5 0
14.5849 -0.5 0
15.7994 0.623564 0
15.785 1 0
15.7705 0.804417 0
15.6812 0.4561 0
15.5482 0.300965 0
15.3115 0.157371 0
15.3633 0.300636 0
15.121 0.0249181 0
15.177 0.157201 0
14.8258 -0.210475 0
14.8833 -0.0974601 0
14.9968 0.0247565 0
14.6634 -0.411067 0
14.756 -0.314841 0
14.585 -0.411111 0
14.5016 -0.5 0
15.46 0.376759 0
14.7641 -0.15526 0
15.6076 0.623336 0
15.5854 1 0
15.5969 0.804415 0
15.5564 0.455809 0
15.2177 0.30047 0
15.3683 0.455514 0
14.9954 0.15686 0
15.0863 0.300135 0
14.6911 -0.210712 0
14.8726 0.0245941 0
14.7846 -0.0378623 0
14.6582 -0.314923 0
14.5852 -0.315006 0
14.4949 -0.411155 0
14.4185 -0.5 0
14.7001 -0.0978902 0
15.4939 0.71195 0
14.8611 0.156687 0
15.3948 0.622996 0
15.3859 1 0
15.3905 0.804215 0
15.2107 0.455365 0
14.9549 0.299799 0
15.0228 0.455066 0
14.5854 -0.210831 0
14.6124 -0.0980353 0
14.7098 0.0241022 0
14.747 0.156428 0
14.4876 -0.315089 0
14.4167 -0.411199 0
14.3385 -0.411243 0
14.3354 -0.5 0
14.8485 0.299799 0
14.1695 -0.5 0
14.2524 -0.5 0
15.2915 0.711764 0
15.161 0.622539 0
15.1841 0.804014 0
15.1863 1 0
14.8046 0.454611 0
15.0117 0.622539 0
14.9235 0.537074 0
14.4797 -0.210951 0
14.5247 -0.0981803 0
14.5858 0.0239367 0
14.6329 0.156169 0
14.7316 0.299288 0
14.4147 -0.315172 0
14.3419 -0.315256 0
14.2604 -0.411287 0
14.0867 -0.5 0
14.1706 -0.411331 0
14.0039 -0.5 0
14.9888 0.803878 0
14.9868 1 0
14.8203 0.622306 0
14.6805 0.454303 0
14.4103 -0.0983264 0
14.3455 -0.211193 0
14.4079 0.0236033 0
14.4973 0.0885264 0
14.6253 0.299288 0
14.5131 0.22605 0
14.2445 -0.31534 0
14.0809 -0.411376 0
14.0992 -0.31551 0
14.1718 -0.315425 0
13.9212 -0.5 0
14.003 -0.411421 0
13.8387 -0.5 0
14.2887 -0.0986206 0
14.8044 0.803809 0
14.7872 1 0
14.6935 0.711039 0
14.5869 0.621831 0
14.5563 0.453995 0
14.2997 0.0232667 0
14.2401 -0.211314 0
14.4052 0.155654 0
14.458 0.374764 0
14.3635 0.298594 0
14.0021 -0.315595 0
14.0679 -0.211559 0
14.154 -0.211437 0
13.9135 -0.411466 0
13.8358 -0.411512 0
13.7562 -0.5 0
14.2071 -0.0390199 0
13.6737 -0.5 0
13.5914 -0.5 0
14.5982 0.8036 0
14.5877 1 0
14.4571 0.53605 0
14.4807 0.710777 0
14.1222 0.0229268 0
14.2245 0.155307 0
14.1139 -0.0989176 0
14.3689 0.453682 0
14.2184 0.298418 0
13.905 -0.315681 0
13.9343 -0.211806 0
13.9999 -0.0990672 0
13.7581 -0.411557 0
13.8326 -0.315767 0
13.6688 -0.411603 0
13.5091 -0.5 0
13.5913 -0.411649 0
13.2629 -0.5 0
13.1809 -0.5 0
13.3449 -0.5 0
13.427 -0.5 0
13.7602 -0.315853 0
14.044 0.154957 0
14.3881 1 0
14.3703 0.803245 0
14.3538 0.621348 0
13.9987 0.0227556 0
14.0878 0.298062 0
14.2118 0.453525 0
13.8292 -0.211931 0
13.886 -0.0992175 0
13.6879 -0.31594 0
13.5912 -0.316028 0
13.5021 -0.411695 0
13.1815 -0.411882 0
13.2704 -0.411835 0
13.1045 -0.41193 0
13.0991 -0.5 0
13.3475 -0.411788 0
13.4248 -0.411741 0
13.6959 -0.212182 0
13.9573 0.297707 0
13.8637 0.154603 0
12.9357 -0.5 0
13.0174 -0.5 0
12.8541 -0.5 0
14.0881 0.453205 0
14.1886 1 0
14.1969 0.803245 0
14.1628 0.621102 0
13.8215 0.0224107 0
13.9643 0.452886 0
13.765 -0.0995203 0
13.5911 -0.212308 0
13.4946 -0.316115 0
13.1822 -0.316471 0
13.254 -0.316381 0
13.3504 -0.316292 0
13.0158 -0.411978 0
13.0859 -0.316561 0
13.4225 -0.316204 0
13.6514 -0.0996728 0
13.8512 0.297707 0
13.7505 0.154334 0
12.939 -0.412025 0
12.8505 -0.412063 0
12.7726 -0.5 0
14.0137 0.621102 0
13.989 1 0
13.991 0.803028 0
13.6446 0.0220623 0
13.7773 0.452563 0
13.8019 0.62073 0
13.4864 -0.212435 0
13.5307 -0.0999801 0
13.2491 -0.21282 0
13.1638 -0.21295 0
13.3536 -0.212691 0
13.0142 -0.316653 0
12.9425 -0.316744 0
13.0785 -0.21308 0
13.7352 0.297164 0
13.6372 0.154065 0
12.8709 -0.316825 0
12.7737 -0.412111 0
12.7749 -0.316916 0
12.6912 -0.5 0
13.5508 0.0865653 0
13.552 0.296799 0
13.7895 1 0
13.8068 0.802955 0
13.4678 0.0217104 0
13.5904 0.452235 0
13.6856 0.534811 0
13.7034 0.709944 0
13.4172 -0.100135 0
13.3304 -0.100291 0
13.2437 -0.100447 0
13.1235 -0.100768 0
12.9794 -0.213274 0
12.8803 -0.213468 0
13.0104 -0.100926 0
13.4574 0.153702 0
12.7763 -0.213601 0
12.7035 -0.317017 0
12.6854 -0.412159 0
12.6099 -0.5 0
13.4608 0.412058 0
13.446 0.296799 0
12.4475 -0.5 0
12.5287 -0.5 0
13.6009 0.802733 0
13.5899 1 0
13.3184 0.153151 0
13.3072 0.0211759 0
13.5903 0.620351 0
13.4765 0.534396 0
13.1844 0.0209958 0
13.0083 0.0206252 0
12.8906 -0.101237 0
12.7777 -0.101398 0
12.9017 0.0202678 0
13.3305 0.296256 0
12.6723 -0.213734 0
12.6077 -0.31711 0
12.6089 -0.412218 0
12.5324 -0.412257 0
13.3437 0.451571 0
12.3665 -0.5 0
12.4443 -0.412306 0
12.0431 -0.5 0
12.1238 -0.5 0
12.2855 -0.5 0
12.2046 -0.5 0
13.406 0.802583 0
13.3904 1 0
13.2246 0.296256 0
13.1852 0.152965 0
13.358 0.619837 0
13.0522 0.152778 0
12.9137 0.152211 0
12.7792 0.020083 0
12.6649 -0.10156 0
12.6016 -0.158928 0
12.5408 -0.214003 0
12.5364 -0.317194 0
12.4408 -0.317288 0
13.1872 0.451402 0
12.368 -0.412355 0
12.2917 -0.412415 0
11.9625 -0.5 0
12.0402 -0.412565 0
12.1279 -0.412505 0
12.2039 -0.412465 0
11.882 -0.5 0
12.3696 -0.317382 0
12.6569 0.0198973 0
13.1895 0.802279 0
13.1908 1 0
13.0419 0.295889 0
13.1675 0.619518 0
12.9268 0.295326 0
12.7349 0.151831 0
12.8308 0.222172 0
[...]
POINT_DATA 2305
VECTORS Velocity float
8.27458e-31 3.62555e-31 0.0
6.15701e-33 2.91521e-31 0.0
2.41254e-31 -3.51766e-31 0.0
2.98022e-31 -1.90407e-31 0.0
2.48698e-31 -6.50618e-31 0.0
7.98776e-31 -2.86397e-31 0.0
4.69499e-31 -3.43418e-31 0.0
8.39562 4.16195e-31 0.0
4.88334e-32 -1.9463e-31 0.0
8.04475 -1.32815e-28 0.0
6.87351 -4.08336e-31 0.0
3.50144e-31 -2.59399e-31 0.0
13.7959 0.312684 0.0
7.5409 -0.0911014 0.0
15.0966 0.365193 0.0
24.1375 -0.383024 0.0
20.9627 -0.182741 0.0
23.605 -0.0349997 0.0
8.94005 0.0050804 0.0
4.64646e-31 -4.71891e-31 0.0
22.7168 0.561526 0.0
17.7112 -0.302418 0.0
24.0274 0.100818 0.0
3.0788e-31 -4.16693e-31 0.0
3.91581e-31 -4.92935e-31 0.0
29.9306 -0.142773 0.0
31.3464 -0.315596 0.0
38.727 -0.180398 0.0
9.14038 0.109067 0.0
33.0787 -0.130518 0.0
17.64 0.0239659 0.0
25.1789 -0.214187 0.0
30.0202 0.00923637 0.0
9.08003 -0.0901572 0.0
3.75093e-31 -5.2605e-31 0.0
9.0749 0.0482454 0.0
38.0752 -0.307995 0.0
5.84465e-31 1.34595e-31 0.0
3.64966e-31 -6.90921e-31 0.0
3.53893e-31 -4.73401e-28 0.0
39.2906 0.215703 0.0
3.73906e-31 -5.68533e-31 0.0
3.84301e-31 -7.87238e-31 0.0
3.45415e-31 6.48227e-28 0.0
3.69617e-31 -3.57348e-28 0.0
27.0274 -6.59263e-32 0.0
40.43 -0.074682 0.0
17.331 0.154907 0.0
36.1126 0.0422758 0.0
38.9928 0.46381 0.0
25.4257 -0.0597724 0.0
31.8791 0.208271 0.0
17.7474 0.0420966 0.0
9.08121 -0.0581782 0.0
9.02587 0.0184287 0.0
39.9119 -0.0684597 0.0
7.34585e-31 1.87878e-31 0.0
9.13623 -4.86811e-30 0.0
9.07756 -0.0291151 0.0
33.9675 0.175924 0.0
9.10596 0.0479317 0.0
9.16737 0.0679946 0.0
3.45053e-31 -5.77899e-28 0.0
9.17344 -0.0173895 0.0
16.8422 -0.294748 0.0
39.6837 -0.0854783 0.0
38.1065 -0.256682 0.0
25.2442 0.0663408 0.0
36.8093 -0.281594 0.0
39.8873 -0.310751 0.0
31.9705 -0.0358244 0.0
17.4361 -0.0831619 0.0
17.6277 -0.0476585 0.0
17.555 0.159308 0.0
9.27144e-31 4.3812e-31 0.0
17.6361 0.0241881 0.0
17.5464 -0.0516918 0.0
17.5631 -0.0232608 0.0
17.5589 -0.0360017 0.0
25.1237 0.778911 0.0
9.03484 -0.00789828 0.0
9.14945 -0.0605218 0.0
3.82702e-31 -3.07069e-28 0.0
39.8027 0.382403 0.0
39.7718 -0.0637072 0.0
17.509 -0.00433783 0.0
33.5914 0.502386 0.0
31.8027 0.210118 0.0
25.5209 -0.0622405 0.0
37.108 0.302575 0.0
38.7604 0.309941 0.0
25.1252 0.0899362 0.0
9.34571e-31 -1.44255e-29 0.0
25.2325 0.0135715 0.0
25.3037 -0.0333894 0.0
25.2664 0.104059 0.0
25.4426 0.00361439 0.0
21.2861 -0.672473 0.0
17.5567 0.0448802 0.0
9.03211 0.00100945 0.0
17.5875 -0.0253174 0.0
3.68428e-31 -8.93864e-31 0.0
37.079 -0.756364 0.0
40.3471 -0.00673491 0.0
39.6106 -0.0979867 0.0
28.4043 0.300673 0.0
39.5425 -0.0416461 0.0
30.7987 -0.312524 0.0
31.9227 -0.230956 0.0
36.6871 -0.409003 0.0
39.9206 0.0128526 0.0
31.7777 -0.169977 0.0
17.9248 1.10435e-30 0.0
8.87907e-31 9.81549e-31 0.0
31.9224 -0.0281965 0.0
31.6997 0.0919865 0.0
31.979 0.0890682 0.0
31.6833 -0.111929 0.0
25.2693 0.00559286 0.0
9.0474 0.018371 0.0
17.6256 -0.0333153 0.0
25.2143 -0.0379767 0.0
3.5486e-31 -9.45653e-31 0.0
36.9981 0.0975239 0.0
40.2868 -0.128142 0.0
3.5244e-31 -1.05198e-30 0.0
38.3647 -0.414532 0.0
24.9768 0.19989 0.0
3.6713e-31 -9.67329e-31 0.0
3.68945e-31 -1.0238e-30 0.0
3.62868e-31 -1.09411e-30 0.0
30.2963 -0.19687 0.0
36.7941 0.381965 0.0
39.8982 -0.00766405 0.0
39.7546 -0.0492811 0.0
18.6427 -0.351797 0.0
8.37427e-31 1.20144e-30 0.0
36.7424 0.0380739 0.0
36.6596 -0.0872526 0.0
36.8844 0.0287239 0.0
31.7968 -0.0354195 0.0
9.06678 -0.0115358 0.0
17.536 0.0465529 0.0
25.2481 0.0298025 0.0
37.3491 0.354569 0.0
9.07706 -1.05664e-30 0.0
9.05418 0.0140272 0.0
3.65281e-31 -1.13601e-30 0.0
9.04223 -0.0166154 0.0
3.62468e-31 -1.2169e-30 0.0
38.5255 0.0198571 0.0
3.65768e-31 -1.2507e-30 0.0
3.68162e-31 -1.1777e-30 0.0
30.306 0.0646089 0.0
39.5598 0.00176655 0.0
40.4387 0.0799838 0.0
38.3054 0.0222819 0.0
8.08591e-31 -1.25721e-29 0.0
18.2892 0.371945 0.0
39.8611 0.118193 0.0
39.297 -0.00651355 0.0
36.7364 0.0721895 0.0
38.4856 0.144637 0.0
31.8826 0.100885 0.0
17.6032 0.0201606 0.0
25.2738 0.00591882 0.0
33.9291 0.1344 0.0
17.587 0.0033712 0.0
17.5803 -0.0219053 0.0
9.03607 0.00763887 0.0
17.5711 -0.034636 0.0
9.03499 0.0103957 0.0
9.04032 -0.00606827 0.0
3.57065e-31 -1.29626e-30 0.0
9.04623 -0.00395358 0.0
8.99761 0.00631591 0.0
3.64766e-31 -1.33557e-30 0.0
30.4862 0.041029 0.0
40.1444 0.101124 0.0
37.1194 -0.0703363 0.0
9.80714e-31 1.69516e-30 0.0
18.4802 -0.173628 0.0
40.1922 -0.0746299 0.0
39.962 0.0962965 0.0
39.822 0.00149231 0.0
36.777 -0.00929229 0.0
38.526 -0.0410358 0.0
31.7844 -0.0268721 0.0
25.2457 0.0710956 0.0
25.1883 -0.0702652 0.0
25.2409 0.0539305 0.0
17.5906 0.0142839 0.0
25.2411 -0.00100263 0.0
17.58 -0.00596338 0.0
17.5419 0.0181219 0.0
17.528 0.0204756 0.0
9.04921 0.0147306 0.0
9.07148 -0.000946899 0.0
3.55687e-31 -1.37824e-30 0.0
3.68935e-31 -1.44635e-30 0.0
3.55811e-31 -1.40569e-30 0.0
30.3253 0.156724 0.0
37.5128 0.0592592 0.0
7.29203e-31 1.85504e-30 0.0
18.2708 1.88834e-30 0.0
40.2113 0.125332 0.0
37.2932 0.0385709 0.0
40.1632 -0.0699449 0.0
39.7019 0.0165028 0.0
39.1513 0.0614301 0.0
36.8028 0.0197502 0.0
31.8382 -0.0333845 0.0
31.7443 -0.00997749 0.0
25.2196 -0.00696356 0.0
31.8037 0.0537375 0.0
25.2127 0.01548 0.0
25.191 -0.00575084 0.0
17.5616 0.0468767 0.0
9.04618 -0.0202814 0.0
17.4359 0.0505034 0.0
17.5853 -0.108118 0.0
9.00354 -1.44282e-30 0.0
3.63416e-31 -1.4997e-30 0.0
3.5016e-31 -1.51991e-30 0.0
30.3535 0.168774 0.0
8.98697e-31 2.09566e-30 0.0
18.3318 -0.0177559 0.0
37.4156 -0.049797 0.0
39.1613 0.0847222 0.0
40.2809 0.0611583 0.0
36.8394 0.0210662 0.0
39.6927 -0.00587743 0.0
31.7548 -0.0607566 0.0
31.722 -0.0373964 0.0
36.7375 -0.037284 0.0
31.6855 0.0624818 0.0
25.2447 -0.0322399 0.0
31.7097 0.0889586 0.0
17.504 0.00247029 0.0
25.2023 0.0566529 0.0
25.1644 0.00548582 0.0
9.04104 0.0224158 0.0
9.07128 0.00719088 0.0
3.6459e-31 -1.57723e-30 0.0
30.2752 -0.0574709 0.0
8.97246e-31 2.34597e-30 0.0
18.2057 0.0790135 0.0
34.2253 0.0591568 0.0
40.2046 0.0271395 0.0
37.3886 -0.0304196 0.0
39.8748 -0.161724 0.0
36.7887 -0.015707 0.0
39.7899 0.0700733 0.0
36.7594 0.0301232 0.0
31.6751 -0.115339 0.0
17.5041 0.0834568 0.0
25.2179 -0.0350559 0.0
31.6107 0.116818 0.0
28.6527 -0.020905 0.0
9.05084 -0.0122726 0.0
17.4257 -0.0530847 0.0
3.43449e-31 -1.59263e-30 0.0
3.7755e-31 -1.64914e-30 0.0
30.3518 0.110944 0.0
8.22837e-31 2.55853e-30 0.0
18.3195 -0.0907941 0.0
37.401 -0.128636 0.0
40.1613 -0.000401644 0.0
39.8431 -0.066886 0.0
40.1518 -0.0317224 0.0
36.6955 -0.0775913 0.0
39.7691 -0.0138185 0.0
25.1876 -0.0180257 0.0
31.611 -0.0464333 0.0
36.8211 0.000155013 0.0
8.973 -0.0322924 0.0
17.4807 -0.0197518 0.0
9.00758 0.0380227 0.0
3.45824e-31 -1.67764e-30 0.0
38.8837 0.0429412 0.0
28.4215 0.00909486 0.0
30.4313 -0.025583 0.0
8.93176e-31 2.80114e-30 0.0
18.0962 0.0475811 0.0
37.4024 -0.134992 0.0
40.2364 0.0730363 0.0
37.2932 -0.00845942 0.0
39.8259 0.101508 0.0
40.34 -0.0929495 0.0
25.1127 0.0165595 0.0
36.744 0.0229385 0.0
34.3342 0.0720439 0.0
17.5208 -0.0228931 0.0
17.4203 0.0112574 0.0
9.02138 -0.0108079 0.0
3.65049e-31 -1.71977e-30 0.0
31.682 -0.0361473 0.0
24.7159 -0.12114 0.0
39.6916 0.0229831 0.0
30.4301 -0.0681243 0.0
8.57105e-31 3.02305e-30 0.0
18.3174 0.0145602 0.0
37.3589 0.145956 0.0
40.2465 -0.0751836 0.0
37.3599 0.0175994 0.0
25.2052 -0.0103707 0.0
31.6411 0.00881338 0.0
36.691 0.0175107 0.0
39.7973 -0.119682 0.0
17.4673 0.0063113 0.0
8.97409 0.0226334 0.0
9.03228 -0.0106137 0.0
3.6416e-31 -1.75848e-30 0.0
40.2242 0.0607598 0.0
3.58052e-31 -1.83087e-30 0.0
3.55689e-31 -1.80038e-30 0.0
24.6976 -0.0528157 0.0
30.4461 0.122317 0.0
18.3063 3.21889e-30 0.0
8.30791e-31 3.23452e-30 0.0
37.4367 -0.124544 0.0
30.3601 0.0210771 0.0
34.2772 -0.128261 0.0
25.1472 0.0162123 0.0
31.5978 -0.000381489 0.0
36.6816 -0.0434389 0.0
39.8247 0.0283652 0.0
40.1462 0.0956347 0.0
17.4512 -0.0171789 0.0
17.4506 0.0498771 0.0
9.01762 0.00900947 0.0
3.50272e-31 -1.86631e-30 0.0
9.02982 -1.83332e-30 0.0
3.63527e-31 -1.91298e-30 0.0
18.3725 0.00571408 0.0
8.9401e-31 3.48295e-30 0.0
30.3518 -0.0927688 0.0
37.4247 0.0196988 0.0
31.6518 0.00554148 0.0
25.1651 0.0583001 0.0
36.7557 0.123006 0.0
38.2783 0.0793431 0.0
40.2128 -0.100354 0.0
40.3222 0.0163351 0.0
17.4427 -0.0216856 0.0
8.98616 -0.0208013 0.0
17.4637 -0.0157289 0.0
17.4744 0.0188663 0.0
3.43127e-31 -1.94297e-30 0.0
8.99309 0.0172677 0.0
3.67025e-31 -1.98167e-30 0.0
31.5708 -0.0185982 0.0
18.3405 -0.0252931 0.0
8.472e-31 3.71889e-30 0.0
24.8632 -0.197695 0.0
30.3893 0.0148278 0.0
37.3856 0.117229 0.0
36.788 -0.053753 0.0
25.1336 0.0301118 0.0
39.7739 0.0860788 0.0
39.0755 0.0806972 0.0
40.1467 0.0943599 0.0
17.4778 -0.00472709 0.0
25.1377 0.0200471 0.0
25.0869 -0.0105947 0.0
8.96292 -0.0232875 0.0
8.94526 0.00529621 0.0
3.54721e-31 -2.02503e-30 0.0
34.5079 0.0133277 0.0
3.56191e-31 -2.05578e-30 0.0
3.45478e-31 -2.09137e-30 0.0
18.4101 3.94047e-30 0.0
8.52787e-31 3.93713e-30 0.0
34.4587 -0.0107737 0.0
24.8602 0.248232 0.0
36.6869 0.0975033 0.0
39.7415 0.0336173 0.0
31.6142 0.016666 0.0
37.4942 0.0295659 0.0
40.2556 0.118799 0.0
17.4765 -0.0308012 0.0
25.0674 -0.0332499 0.0
31.5809 -0.031372 0.0
8.96528 0.0108163 0.0
17.4352 -0.00738818 0.0
8.96708 -0.00225123 0.0
3.61583e-31 -2.1314e-30 0.0
8.90854 -0.0286678 0.0
3.53119e-31 -2.2422e-30 0.0
3.57634e-31 -2.27528e-30 0.0
3.55358e-31 -2.2016e-30 0.0
3.53993e-31 -2.16952e-30 0.0
17.4161 0.0337497 0.0
39.8968 -0.0654778 0.0
8.18083e-31 4.13483e-30 0.0
18.3469 0.0462527 0.0
30.4776 0.134537 0.0
36.8049 0.0346375 0.0
40.3144 0.0616722 0.0
37.4821 0.233736 0.0
25.0541 -0.0522403 0.0
31.6709 -0.0153082 0.0
17.3813 -0.0215998 0.0
17.365 -0.0611988 0.0
8.91179 0.0198158 0.0
8.91081 0.0144886 0.0
8.91043 -0.0051605 0.0
8.95014 0.0194427 0.0
3.43196e-31 -2.31872e-30 0.0
8.94024 -0.011326 0.0
8.91489 0.0166536 0.0
25.0274 -0.0141145 0.0
40.2063 0.0676647 0.0
39.746 -0.0651756 0.0
3.4339e-31 -2.38353e-30 0.0
3.58575e-31 -2.34591e-30 0.0
3.51278e-31 -2.41692e-30 0.0
37.4132 -0.0379024 0.0
8.8519e-31 4.41304e-30 0.0
18.3711 -0.107968 0.0
30.3958 -0.0664297 0.0
36.6483 -0.0359171 0.0
37.5595 -0.0965396 0.0
31.6962 0.00157528 0.0
25.0695 -0.0511487 0.0
17.3624 0.0343356 0.0
17.3432 0.0396873 0.0
17.376 0.00740305 0.0
17.3348 -0.00287372 0.0
8.97721 -0.00460259 0.0
17.3139 0.0478908 0.0
17.3516 0.0252674 0.0
31.5885 -0.0382249 0.0
40.3747 -0.134641 0.0
39.8157 0.0236202 0.0
8.96397 -2.38604e-30 0.0
8.95733 -0.00151715 0.0
3.53265e-31 -2.45513e-30 0.0
30.2503 0.166233 0.0
9.27839e-31 4.60221e-30 0.0
18.4282 0.096744 0.0
36.7017 -0.0747695 0.0
37.3292 -0.0398752 0.0
30.5249 -0.120747 0.0
25.0224 -0.000368218 0.0
31.6282 0.0287503 0.0
25.0192 0.00114858 0.0
25.0069 -0.0246359 0.0
25.0235 0.027818 0.0
17.2947 0.00282336 0.0
17.3128 0.00834198 0.0
24.9951 0.0239505 0.0
40.2134 -0.10668 0.0
39.7257 -0.0192537 0.0
17.2955 -0.0434144 0.0
8.92 -0.0171394 0.0
17.2666 -0.0144535 0.0
3.48373e-31 -2.49197e-30 0.0
38.3582 0.0424409 0.0
40.2023 0.0480387 0.0
8.02365e-31 4.87036e-30 0.0
18.277 -0.0288508 0.0
36.6277 0.0491634 0.0
37.4997 -0.1354 0.0
34.5147 -0.0292744 0.0
24.8641 -0.0551369 0.0
31.6492 0.00634632 0.0
31.5374 -0.00139829 0.0
31.542 0.0452354 0.0
31.5115 -0.001564 0.0
24.947 -0.00497399 0.0
24.9051 -0.0289449 0.0
31.4817 -0.0357425 0.0
39.7157 -0.0517018 0.0
24.9488 0.0169217 0.0
17.3067 -0.0533423 0.0
8.88464 -0.00720926 0.0
3.55701e-31 -2.5267e-30 0.0
38.4969 -0.0172319 0.0
39.9286 -0.0765575 0.0
3.42281e-31 -2.59327e-30 0.0
3.50758e-31 -2.56322e-30 0.0
18.3793 -0.0226393 0.0
8.93702e-31 5.06947e-30 0.0
39.76 -0.0922739 0.0
36.6708 -0.110606 0.0
30.5117 0.0452465 0.0
34.3248 -0.0946366 0.0
36.5788 0.0102477 0.0
36.6146 -0.0412017 0.0
31.4767 -0.0250296 0.0
31.4534 0.0249886 0.0
36.539 -0.0371436 0.0
40.2341 0.0229802 0.0
24.9424 -0.00722558 0.0
17.28 0.00991656 0.0
8.87742 -0.00492231 0.0
8.86989 0.0114517 0.0
37.4325 0.0656848 0.0
3.4955e-31 -2.63422e-30 0.0
8.88654 -2.59533e-30 0.0
3.35585e-31 -2.76719e-30 0.0
3.50053e-31 -2.73687e-30 0.0
3.55884e-31 -2.66203e-30 0.0
3.46866e-31 -2.70259e-30 0.0
18.4803 -0.0403281 0.0
8.23578e-31 5.32183e-30 0.0
40.2647 -0.108002 0.0
39.6836 0.0113867 0.0
30.5279 -0.185242 0.0
39.6823 -0.0161931 0.0
39.7439 -0.0341399 0.0
36.5936 0.0839081 0.0
31.5272 0.0421515 0.0
28.2334 0.00543172 0.0
24.9279 0.0402725 0.0
17.3079 0.0229548 0.0
17.3006 -0.00222677 0.0
37.4854 0.0154053 0.0
8.86644 0.00584053 0.0
8.88545 -0.000236398 0.0
3.54811e-31 -2.80493e-30 0.0
8.8845 -2.76583e-30 0.0
8.86144 0.0155431 0.0
8.86974 -0.0102596 0.0
3.40063e-31 -2.83642e-30 0.0
17.2984 0.00421861 0.0
36.5737 0.105067 0.0
18.5907 -0.000121158 0.0
8.82754e-31 5.5257e-30 0.0
40.3267 0.00286816 0.0
30.5939 0.0101227 0.0
40.2574 0.009145 0.0
39.6592 0.0573932 0.0
40.0876 0.0575875 0.0
31.5268 0.00832076 0.0
36.5613 -0.0144123 0.0
24.9183 0.00388589 0.0
37.3785 0.0105139 0.0
17.2855 0.0186698 0.0
17.2793 -0.0169953 0.0
8.8862 0.00320942 0.0
17.2353 0.00824538 0.0
17.2624 0.0319136 0.0
8.88767 0.00187808 0.0
3.5027e-31 -2.87207e-30 0.0
24.9071 0.0177538 0.0
39.6306 -0.0128754 0.0
3.37922e-31 -2.94229e-30 0.0
3.56536e-31 -2.90273e-30 0.0
18.6053 5.79577e-30 0.0
8.40665e-31 5.78008e-30 0.0
37.5332 -0.0385966 0.0
30.5998 0.0176128 0.0
40.2515 -0.0570104 0.0
37.4687 -0.0265128 0.0
40.2695 -0.00638667 0.0
31.4775 -0.0118148 0.0
36.5649 -0.0105522 0.0
39.6069 0.0337665 0.0
24.9104 -0.0121152 0.0
24.9187 -0.00674191 0.0
17.2187 0.00333022 0.0
24.8696 -0.0372365 0.0
17.2225 -0.00619575 0.0
8.86492 0.000305814 0.0
8.86547 -0.015353 0.0
31.4627 0.0495287 0.0
8.83147 -2.94919e-30 0.0
3.46085e-31 -2.97533e-30 0.0
3.38605e-31 -3.00092e-30 0.0
3.48519e-31 -3.04277e-30 0.0
18.6082 0.0131993 0.0
8.43231e-31 5.97844e-30 0.0
30.5909 0.0151325 0.0
37.6209 0.202332 0.0
39.1049 0.0272859 0.0
40.3653 0.0940115 0.0
36.5843 0.0274675 0.0
39.671 0.042299 0.0
31.4649 -0.00978752 0.0
31.4705 -0.00730031 0.0
24.8347 0.0361985 0.0
28.1878 0.0143519 0.0
24.886 -0.00144164 0.0
17.2047 0.00992618 0.0
17.2312 -0.0228417 0.0
17.2294 0.00147732 0.0
8.8566 0.0168228 0.0
8.85182 -0.00854722 0.0
8.85684 0.0137832 0.0
3.62752e-31 -3.07112e-30 0.0
8.79756 0.00627238 0.0
3.26051e-31 -3.1146e-30 0.0
3.36827e-31 -3.13244e-30 0.0
36.5495 0.00088732 0.0
30.5275 -0.0516638 0.0
8.81113e-31 6.23634e-30 0.0
18.6285 -0.0133178 0.0
34.5297 -0.047011 0.0
37.5629 0.0294938 0.0
40.3211 0.0298237 0.0
39.6742 0.0190639 0.0
36.5359 0.0197299 0.0
31.4468 -0.0153071 0.0
36.5055 -0.0228215 0.0
31.3773 0.021057 0.0
24.8519 0.0117448 0.0
24.8082 0.00125348 0.0
17.2111 0.0140205 0.0
17.1516 -0.0245011 0.0
17.2103 0.0180735 0.0
8.87715 -3.12976e-30 0.0
17.1588 0.0650162 0.0
8.84789 -0.0131495 0.0
3.41879e-31 -3.17173e-30 0.0
39.7237 -0.0175164 0.0
24.9114 0.0270879 0.0
8.34931e-31 6.42622e-30 0.0
18.5883 0.0419434 0.0
30.5954 0.186413 0.0
37.5142 -0.130285 0.0
40.2818 0.0481014 0.0
39.8259 0.0642726 0.0
36.6078 0.0499635 0.0
31.4795 -0.013481 0.0
31.4222 0.0268319 0.0
24.8689 -0.0207586 0.0
24.8335 0.0180978 0.0
24.836 0.0216152 0.0
17.1994 -0.00125996 0.0
24.831 0.0350498 0.0
8.83013 0.000275017 0.0
17.1428 -0.069723 0.0
3.4185e-31 -3.19658e-30 0.0
40.1366 0.0723224 0.0
3.44983e-31 -3.23629e-30 0.0
17.1514 -0.0049138 0.0
9.11165e-31 6.70609e-30 0.0
18.5484 0.00553261 0.0
30.6593 0.0605312 0.0
37.6684 0.0207366 0.0
39.6496 -0.0737808 0.0
40.2018 -0.0473667 0.0
40.3123 0.0376418 0.0
36.5205 -0.00884239 0.0
31.3895 -0.0133474 0.0
36.4783 -0.0705514 0.0
31.3388 -0.00387072 0.0
31.2319 -0.01865 0.0
24.7765 -0.0548134 0.0
31.2893 0.122115 0.0
8.78646 -0.0216786 0.0
37.6147 0.0765115 0.0
3.59388e-31 -3.26571e-30 0.0
8.06753 0.0403801 0.0
17.1227 -0.0190438 0.0
24.7767 -0.0265209 0.0
3.37231e-31 -3.31228e-30 0.0
3.17631e-31 -3.32277e-30 0.0
3.38104e-31 -3.39264e-30 0.0
-7.79468e-30 9.30218e-29 0.0
8.07229e-31 6.88585e-30 0.0
30.6578 0.0392539 0.0
18.5517 0.00335955 0.0
40.293 -0.000293379 0.0
39.719 -0.0246747 0.0
37.5599 0.0056075 0.0
39.2141 -0.0498996 0.0
36.4685 -0.0374478 0.0
36.5807 -0.0313963 0.0
29.4027 -0.0194182 0.0
36.3324 -0.0487223 0.0
17.1366 -0.0407207 0.0
30.6893 -0.0152044 0.0
8.03754 -3.33252e-30 0.0
8.75455 -0.0333766 0.0
17.1266 0.0255475 0.0
24.8069 0.0251389 0.0
30.2934 -0.0918717 0.0
8.00452 -0.0216281 0.0
8.02022 -3.42297e-30 0.0
7.97786 0.0234506 0.0
3.38862e-31 -3.42779e-30 0.0
8.00855 -0.000851988 0.0
8.76162e-31 7.14932e-30 0.0
18.5315 0.0202358 0.0
39.2714 -0.0881216 0.0
40.1834 -0.0426184 0.0
37.4781 -0.11342 0.0
39.5533 0.00819613 0.0
34.7423 -0.0434749 0.0
39.7276 0.0257001 0.0
36.4098 0.0241039 0.0
38.9031 -0.120394 0.0
24.7088 -0.0499837 0.0
24.9583 -0.0316281 0.0
15.7504 -0.00479844 0.0
15.7471 -0.0144762 0.0
31.1841 -0.110673 0.0
31.2437 -0.101602 0.0
15.7459 -0.00141942 0.0
8.02563 0.0122889 0.0
15.7365 0.0230158 0.0
15.738 0.0326318 0.0
3.49793e-31 -3.45295e-30 0.0
9.10056e-31 7.35082e-30 0.0
18.4575 -0.0032449 0.0
40.2804 -0.0599165 0.0
37.5388 0.0450826 0.0
30.8552 -0.0436444 0.0
40.1425 -0.0130643 0.0
40.1418 0.0903833 0.0
39.7055 0.0445234 0.0
37.6209 -0.0394525 0.0
22.7917 -0.000616482 0.0
29.2093 0.0260559 0.0
22.8334 0.00158136 0.0
34.3963 -0.00695081 0.0
34.4656 0.0325586 0.0
8.04453 0.0117638 0.0
15.7391 0.0287319 0.0
22.7844 0.022391 0.0
22.805 0.0475149 0.0
3.22256e-31 -3.49735e-30 0.0
3.42769e-31 -3.51606e-30 0.0
18.6727 -0.134708 0.0
8.30334e-31 7.6331e-30 0.0
37.6037 -0.114263 0.0
30.642 -0.275233 0.0
40.2946 0.066064 0.0
39.2116 -0.0439681 0.0
39.7137 -0.068057 0.0
37.4039 0.107072 0.0
29.2358 -0.0197552 0.0
34.4638 0.00162721 0.0
29.2332 0.0560959 0.0
38.2958 -0.128801 0.0
15.7556 0.0615998 0.0
8.06265 -3.33878e-30 0.0
29.233 0.011042 0.0
22.832 0.0698238 0.0
29.1408 0.0945171 0.0
3.38689e-31 2.9862e-29 0.0
3.36074e-31 -3.57296e-30 0.0
24.3582 -0.0138168 0.0
3.34795e-31 -3.61572e-30 0.0
17.5055 7.7765e-30 0.0
8.21817e-31 7.79855e-30 0.0
30.8251 0.16916 0.0
34.4929 0.150474 0.0
37.5378 0.230038 0.0
40.1827 -0.0832008 0.0
39.6326 -0.208297 0.0
39.6408 0.029625 0.0
34.3195 0.0217992 0.0
38.2394 0.0157426 0.0
40.2078 -0.0671247 0.0
15.7545 -0.0139873 0.0
8.0189 -0.0192777 0.0
15.7357 -0.0706332 0.0
34.3545 -0.00979712 0.0
26.2229 -0.0209218 0.0
29.0295 0.0345272 0.0
34.4237 -0.0502465 0.0
7.98706 -0.00334339 0.0
8.0081 0.0153171 0.0
3.44938e-31 -3.64217e-30 0.0
9.10155e-31 8.0562e-30 0.0
18.6063 0.0448637 0.0
30.7601 -0.311083 0.0
37.2498 -0.0232999 0.0
40.1114 0.0138151 0.0
38.3805 0.0340655 0.0
40.1509 0.141066 0.0
39.966 -0.129605 0.0
40.1672 0.0678116 0.0
22.8385 -0.060589 0.0
15.711 -0.00696717 0.0
38.2461 0.101098 0.0
34.4072 0.0862653 0.0
29.0903 0.000546748 0.0
15.6734 0.0164192 0.0
8.00065 -0.00904816 0.0
3.36424e-31 -3.67442e-30 0.0
24.2786 -0.0161543 0.0
25.9167 -0.0697558 0.0
3.28732e-31 -3.69849e-30 0.0
17.4564 8.318e-30 0.0
8.25145e-31 8.28704e-30 0.0
29.2705 0.0261771 0.0
33.237 -0.0144625 0.0
40.2385 0.00880346 0.0
39.7267 -0.00352899 0.0
36.0487 0.0560915 0.0
22.8017 0.00209554 0.0
38.1939 -0.0325031 0.0
39.4146 -0.0285591 0.0
34.3996 -0.00945899 0.0
29.1833 0.0218577 0.0
15.7041 0.0331582 0.0
8.00679 -0.00913308 0.0
7.98099 0.0184391 0.0
8.00635 -0.00383448 0.0
3.37606e-31 -3.73369e-30 0.0
3.34156e-31 -3.77073e-30 0.0
8.77088e-31 8.51516e-30 0.0
17.4335 -0.0325277 0.0
29.1442 0.00496204 0.0
39.4781 0.088952 0.0
39.7613 -0.051862 0.0
40.1651 -0.0130123 0.0
36.1057 -0.138747 0.0
33.1301 0.168157 0.0
22.7338 -0.0288967 0.0
29.142 -0.0093351 0.0
38.2212 0.0465384 0.0
34.2784 -0.0280602 0.0
15.652 -0.0180582 0.0
15.7073 0.0160115 0.0
15.6155 -0.0283095 0.0
7.993 -3.77476e-30 0.0
3.29208e-31 -3.78907e-30 0.0
3.28781e-31 -3.84115e-30 0.0
15.6128 0.0161223 0.0
3.39126e-31 -3.88386e-30 0.0
3.33514e-31 -3.81657e-30 0.0
17.5271 0.0099534 0.0
8.55202e-31 8.73552e-30 0.0
29.1698 -0.0571161 0.0
39.8614 -0.0738131 0.0
36.4023 0.0854763 0.0
40.1682 0.0179196 0.0
29.17 0.0208139 0.0
22.7598 0.0903499 0.0
34.2866 -0.0158864 0.0
38.2562 -0.113619 0.0
22.7564 -0.0805096 0.0
22.763 -0.000507307 0.0
8.00056 0.00671505 0.0
15.5973 0.0120082 0.0
7.94382 -3.83733e-30 0.0
7.98422 0.0230594 0.0
3.31303e-31 -3.90346e-30 0.0
8.00958 -0.0275706 0.0
3.25796e-31 -3.96226e-30 0.0
3.31505e-31 -3.93301e-30 0.0
3.38058e-31 -3.99524e-30 0.0
17.5402 8.98292e-30 0.0