# vtk DataFile Version 3.0
VTK output from FreeFEM
ASCII
DATASET UNSTRUCTURED_GRID
POINTS 27254 float
20 0.709709 0
20 0.743065 0
20 0.749736 0
20 0.71638 0
20 0.723051 0
20 0.729723 0
20 0.736394 0
19.9952 0.738156 0
20 0.676352 0
20 0.683023 0
20 0.703037 0
20 0.689695 0
20 0.696366 0
19.9952 0.711647 0
19.9951 0.704919 0
20 0.642995 0
20 0.756408 0
19.9953 0.744886 0
19.9952 0.751709 0
19.9952 0.718275 0
19.9952 0.724902 0
19.9952 0.731529 0
19.9904 0.739841 0
20 0.763079 0
20 0.636324 0
20 0.629653 0
20 0.529583 0
20 0.51624 0
20 0.522912 0
19.9952 0.524749 0
20 0.496226 0
19.9952 0.638132 0
20 0.649667 0
20 0.656338 0
20 0.663009 0
20 0.669681 0
19.9952 0.671582 0
19.9952 0.68483 0
19.9952 0.678206 0
19.9901 0.7133 0
19.9951 0.698293 0
19.9952 0.691454 0
19.9901 0.706719 0
19.9899 0.699925 0
19.9902 0.686322 0
19.9952 0.644753 0
19.9952 0.758339 0
19.9901 0.746833 0
19.9901 0.753419 0
19.9901 0.719881 0
19.9901 0.726463 0
19.9852 0.734587 0
19.9849 0.741762 0
19.9952 0.764969 0
20 0.76975 0
20 0.436185 0
20 0.429513 0
20 0.442856 0
20 0.449527 0
19.9952 0.437951 0
20 0.456199 0
20 0.589625 0
20 0.596296 0
20 0.602968 0
20 0.609639 0
19.9952 0.631511 0
19.9951 0.624772 0
20 0.61631 0
20 0.622981 0
20 0.56294 0
20 0.569611 0
20 0.542926 0
20 0.536254 0
19.9952 0.53136 0
20 0.556268 0
20 0.549597 0
20 0.576282 0
20 0.582954 0
19.9951 0.584681 0
20 0.502898 0
20 0.509569 0
19.995 0.511385 0
19.9952 0.518139 0
19.99 0.519636 0
19.99 0.526182 0
19.995 0.498168 0
20 0.476213 0
20 0.489555 0
20 0.482884 0
19.9952 0.491259 0
20 0.46287 0
20 0.469541 0
19.995 0.471287 0
19.9902 0.633032 0
19.9902 0.6396 0
19.9952 0.651374 0
19.9902 0.666596 0
19.9951 0.658225 0
19.9951 0.664848 0
19.9902 0.673171 0
19.9902 0.679747 0
19.9849 0.680956 0
19.9849 0.714648 0
19.9849 0.708093 0
19.9899 0.693346 0
19.9849 0.701581 0
19.9846 0.688184 0
19.9902 0.646168 0
19.9901 0.760006 0
19.9849 0.748272 0
19.9849 0.754846 0
19.9849 0.721159 0
19.9799 0.729082 0
19.9794 0.736454 0
19.9794 0.74295 0
19.9901 0.766593 0
19.9952 0.771599 0
20 0.776422 0
20 0.409499 0
20 0.416171 0
20 0.402828 0
19.9951 0.404797 0
20 0.396157 0
20 0.422842 0
19.9952 0.431353 0
19.9901 0.432694 0
19.9952 0.444548 0
19.995 0.45148 0
19.9901 0.439214 0
19.995 0.458082 0
19.9953 0.591429 0
19.9953 0.598046 0
19.9951 0.604914 0
19.9951 0.611533 0
19.9902 0.626464 0
19.9951 0.618153 0
19.985 0.627677 0
19.9951 0.55822 0
19.9951 0.564835 0
19.9951 0.571451 0
19.99 0.532709 0
19.9953 0.544724 0
19.9903 0.539576 0
19.9953 0.551336 0
19.99 0.553244 0
19.9951 0.578066 0
19.9903 0.586304 0
19.995 0.504777 0
19.99 0.51309 0
19.9846 0.520682 0
19.9846 0.514205 0
19.9789 0.52129 0
19.9846 0.527161 0
19.9897 0.499681 0
19.9901 0.492494 0
19.9952 0.47805 0
19.9952 0.484654 0
19.9901 0.485976 0
19.995 0.464685 0
19.9901 0.472909 0
19.985 0.63419 0
19.9846 0.641457 0
19.9849 0.667899 0
19.99 0.65322 0
19.99 0.659793 0
19.9849 0.674423 0
19.9795 0.668869 0
19.979 0.682778 0
19.9794 0.715651 0
19.9794 0.709167 0
19.9794 0.702685 0
19.9794 0.6962 0
19.9737 0.690613 0
19.9846 0.647982 0
19.9849 0.761388 0
19.9794 0.749444 0
19.9794 0.75594 0
19.9743 0.723377 0
19.9738 0.730966 0
19.9738 0.737414 0
19.9738 0.74386 0
19.9849 0.76793 0
19.9901 0.77318 0
19.9952 0.778229 0
20 0.783093 0
20 0.3628 0
20 0.349457 0
20 0.356129 0
20 0.369471 0
20 0.376143 0
20 0.382814 0
20 0.389485 0
19.9951 0.411392 0
19.9951 0.417987 0
19.9897 0.406256 0
19.9949 0.398025 0
19.9897 0.399743 0
19.9953 0.391243 0
19.9901 0.426178 0
19.9843 0.433983 0
19.9897 0.44645 0
19.9897 0.452978 0
19.9841 0.441074 0
19.9897 0.459497 0
19.99 0.593384 0
19.99 0.59995 0
19.99 0.606513 0
19.99 0.61308 0
19.985 0.621164 0
19.9791 0.628986 0
19.9795 0.622054 0
19.99 0.5598 0
19.99 0.566357 0
19.99 0.572903 0
19.9795 0.53479 0
19.9847 0.540981 0
19.9897 0.546401 0
19.9846 0.554477 0
19.9789 0.542457 0
19.985 0.580894 0
19.9846 0.588219 0
19.9846 0.507727 0
19.9789 0.502073 0
19.9789 0.514884 0
19.9733 0.518401 0
19.9736 0.528613 0
19.9841 0.494304 0
19.9841 0.487832 0
19.9901 0.479442 0
19.9846 0.46743 0
19.9846 0.473888 0
19.979 0.6425 0
19.979 0.636036 0
19.9795 0.662399 0
19.9846 0.654502 0
19.9737 0.666166 0
19.9744 0.676539 0
19.9731 0.683584 0
19.9737 0.703476 0
19.9685 0.717431 0
19.9737 0.709908 0
19.9678 0.691166 0
19.9737 0.697046 0
19.979 0.648965 0
19.9743 0.763769 0
19.9738 0.756754 0
19.9738 0.750307 0
19.9679 0.725255 0
19.9679 0.731653 0
19.9679 0.744445 0
19.9679 0.738049 0
19.9743 0.77022 0
19.9852 0.774752 0
19.9798 0.775865 0
19.9903 0.779968 0
19.9952 0.784954 0
20 0.789764 0
20 0.342786 0
20 0.336115 0
20 0.329444 0
19.9951 0.344298 0
19.9951 0.364697 0
19.9949 0.357907 0
19.9953 0.351108 0
19.9951 0.371282 0
19.9951 0.377867 0
19.9951 0.384452 0
19.9897 0.412768 0
19.9897 0.41928 0
19.984 0.407154 0
19.984 0.400731 0
19.9893 0.392842 0
19.9846 0.423685 0
19.9788 0.421015 0
19.978 0.435351 0
19.9841 0.447524 0
19.9841 0.453975 0
19.978 0.441717 0
19.9788 0.461589 0
19.9846 0.594727 0
19.9846 0.607743 0
19.9846 0.601236 0
19.9795 0.6156 0
19.9731 0.630352 0
19.9737 0.619248 0
19.9846 0.560971 0
19.9846 0.567466 0
19.9846 0.573959 0
19.9729 0.536646 0
19.9789 0.548885 0
19.9789 0.555314 0
19.9729 0.543005 0
19.9789 0.589245 0
19.9789 0.582796 0
19.9728 0.502388 0
19.9781 0.494979 0
19.9672 0.513839 0
19.9728 0.508717 0
19.9665 0.530481 0
19.9674 0.522106 0
19.9782 0.488583 0
19.9788 0.480721 0
19.9726 0.467964 0
19.9788 0.471017 0
19.9731 0.643165 0
19.9731 0.636758 0
19.9737 0.656651 0
19.9677 0.663341 0
19.967 0.671292 0
19.967 0.677663 0
19.9616 0.685036 0
19.9617 0.719312 0
19.9678 0.70392 0
19.9678 0.710296 0
19.9616 0.697677 0
19.9677 0.650632 0
19.9686 0.761059 0
19.9679 0.772099 0
19.9626 0.758245 0
19.9626 0.751894 0
19.9617 0.725658 0
19.9617 0.732001 0
19.9617 0.744689 0
19.9617 0.738345 0
19.9738 0.777761 0
19.9852 0.781296 0
19.9794 0.783199 0
19.9903 0.786556 0
19.9679 0.778511 0
19.9952 0.791585 0
20 0.796436 0
19.9951 0.337725 0
19.9951 0.331152 0
20 0.322772 0
19.9951 0.324579 0
20 0.316101 0
19.9893 0.346097 0
19.9898 0.338647 0
19.9897 0.366005 0
19.9897 0.359513 0
19.9893 0.352581 0
19.9897 0.372497 0
19.9897 0.378988 0
19.984 0.366691 0
19.9836 0.380087 0
19.9847 0.386599 0
19.9779 0.388471 0
19.9788 0.414672 0
19.9779 0.401129 0
19.9779 0.407457 0
19.9779 0.3948 0
19.9716 0.435509 0
19.9719 0.41858 0
19.9725 0.427037 0
19.978 0.45445 0
19.978 0.448084 0
19.9689 0.442057 0
19.9661 0.461179 0
19.9789 0.595694 0
19.9789 0.608589 0
19.9789 0.602141 0
19.9737 0.612855 0
19.9669 0.630738 0
19.9676 0.622635 0
19.9676 0.616307 0
19.9676 0.609977 0
19.9789 0.561743 0
19.9737 0.569242 0
19.973 0.577106 0
19.9729 0.555726 0
19.9665 0.543054 0
19.9729 0.549365 0
19.973 0.589877 0
19.973 0.583491 0
19.9663 0.489714 0
19.9663 0.498945 0
19.9585 0.516549 0
19.9608 0.509026 0
19.9599 0.536428 0
19.9599 0.524008 0
19.9595 0.482976 0
19.9651 0.469846 0
19.9691 0.482876 0
19.9718 0.476202 0
19.9646 0.644331 0
19.9614 0.638031 0
19.9614 0.656911 0
19.9607 0.671487 0
19.9611 0.664199 0
19.9551 0.678647 0
19.9518 0.684677 0
19.9551 0.69117 0
19.9553 0.719419 0
19.9562 0.711055 0
19.9589 0.704366 0
19.9497 0.698065 0
19.9545 0.651375 0
19.9619 0.772581 0
19.9626 0.764595 0
19.9559 0.759132 0
19.9559 0.748051 0
19.952 0.731839 0
19.9487 0.725393 0
19.9553 0.738286 0
19.9499 0.751533 0
19.9738 0.784221 0
19.9619 0.778946 0
19.9848 0.78844 0
19.9794 0.789704 0
19.9903 0.793145 0
19.9679 0.784925 0
19.9952 0.798216 0
20 0.803107 0
20 0.26273 0
20 0.256059 0
20 0.249388 0
19.9898 0.332182 0
20 0.269402 0
19.9898 0.325717 0
19.9949 0.317771 0
20 0.289416 0
20 0.30943 0
20 0.296087 0
20 0.302758 0
20 0.276073 0
20 0.282744 0
19.9949 0.311203 0
19.9832 0.346801 0
19.9832 0.340424 0
19.984 0.360301 0
19.9777 0.354116 0
19.984 0.373081 0
19.9777 0.366677 0
19.9769 0.381264 0
19.9713 0.388431 0
19.9725 0.411261 0
19.9713 0.400884 0
19.9652 0.41516 0
19.9647 0.435074 0
19.9647 0.42271 0
19.9661 0.448778 0
19.959 0.441731 0
19.959 0.46004 0
19.973 0.596261 0
19.9676 0.603648 0
19.9613 0.606302 0
19.9549 0.634525 0
19.9604 0.624441 0
19.9608 0.617069 0
19.9675 0.562947 0
19.9671 0.570163 0
19.9667 0.577458 0
19.9599 0.548848 0
19.9665 0.555628 0
19.9667 0.590096 0
19.9602 0.583623 0
19.9564 0.502395 0
19.9595 0.4953 0
19.9528 0.523294 0
19.9533 0.509489 0
19.9528 0.535552 0
19.9519 0.464085 0
19.9522 0.48798 0
19.958 0.475402 0
19.9549 0.643966 0
19.9488 0.638963 0
19.954 0.658783 0
19.9518 0.672215 0
19.9484 0.665783 0
19.9484 0.678183 0
19.9428 0.691069 0
19.9487 0.712928 0
19.9418 0.700002 0
19.9492 0.705496 0
19.9471 0.652094 0
19.9555 0.779058 0
19.9555 0.766429 0
19.949 0.760047 0
19.9432 0.744611 0
19.9418 0.724698 0
19.9432 0.732241 0
19.9422 0.753425 0
19.9738 0.790681 0
19.9619 0.785311 0
19.9849 0.795013 0
19.9794 0.79621 0
19.9901 0.800123 0
19.9626 0.792451 0
19.9951 0.805032 0
20 0.809778 0
19.9501 0.786179 0
19.9949 0.264489 0
19.9949 0.25794 0
19.9949 0.251383 0
20 0.242716 0
19.9844 0.329271 0
19.9898 0.272457 0
19.9839 0.319755 0
19.9892 0.31226 0
19.9952 0.290987 0
19.9949 0.304635 0
19.9949 0.298067 0
19.9898 0.285314 0
19.9898 0.278886 0
19.9892 0.305806 0
19.9766 0.34052 0
19.9786 0.333127 0
19.9709 0.353578 0
19.9744 0.360256 0
19.9723 0.373487 0
19.9642 0.381587 0
19.9585 0.39414 0
19.9657 0.40761 0
19.9574 0.415751 0
19.9574 0.427911 0
19.9548 0.448849 0
19.9516 0.440228 0
19.9505 0.455967 0
19.9613 0.597245 0
19.9546 0.609084 0
19.948 0.63086 0
19.9537 0.617861 0
19.9471 0.548038 0
19.9605 0.563681 0
19.9602 0.571124 0
19.9533 0.5768 0
19.9543 0.555485 0
19.9546 0.590511 0
19.9476 0.583445 0
19.9465 0.500219 0
19.9454 0.509972 0
19.9454 0.522059 0
19.9384 0.544076 0
19.9396 0.534232 0
19.9446 0.486209 0
19.9446 0.468285 0
19.9446 0.477247 0
19.9424 0.643578 0
19.9409 0.635849 0
19.9414 0.658875 0
19.9414 0.671146 0
19.9357 0.683747 0
19.9346 0.69916 0
19.9418 0.71235 0
19.9398 0.651245 0
19.9346 0.717496 0
19.9435 0.782528 0
19.949 0.77257 0
19.9422 0.76584 0
19.9289 0.723881 0
[...]
POINT_DATA 27254
SCALARS VelocityX float 1
LOOKUP_TABLE default
0.343442
0.350288
0.351558
0.344879
0.346281
0.347651
0.348984
0.34933
0.335761
0.337363
0.341973
0.338932
0.340469
0.343862
0.342389
0.327244
0.352793
0.350638
0.351925
0.345279
0.346663
0.348015
0.349665
0.353995
0.325442
0.323604
0.292043
0.287264
0.289672
0.290324
0.279856
0.325933
0.329016
0.330751
0.332455
0.334124
0.334593
0.33779
0.336208
0.344219
0.340905
0.33934
0.342788
0.341274
0.338143
0.327713
0.353144
0.351009
0.352244
0.345619
0.346986
0.348627
0.350036
0.354328
0.355164
0.255809
0.252966
0.258613
0.261387
0.256554
0.264125
0.311881
0.313919
0.315922
0.317895
0.324118
0.322237
0.31983
0.321731
0.3034
0.30557
0.296682
0.294379
0.292667
0.301193
0.298955
0.307708
0.309809
0.310348
0.282359
0.284826
0.285491
0.287954
0.288493
0.290839
0.280586
0.272138
0.277316
0.274746
0.277966
0.266829
0.269499
0.270192
0.324538
0.326331
0.329462
0.333356
0.331236
0.332917
0.334986
0.33658
0.336869
0.344508
0.343089
0.339779
0.341646
0.33858
0.328092
0.353445
0.351281
0.352506
0.345886
0.347521
0.348998
0.350268
0.354616
0.35548
0.356299
0.244253
0.247195
0.241283
0.242162
0.238272
0.250097
0.253755
0.254326
0.259319
0.26219
0.257086
0.264891
0.312435
0.314447
0.316499
0.318447
0.322717
0.320356
0.323052
0.301841
0.304019
0.306162
0.293138
0.2973
0.29553
0.299539
0.300184
0.308272
0.310856
0.283057
0.286121
0.288869
0.286524
0.289089
0.291182
0.281155
0.278439
0.272859
0.27543
0.275941
0.267557
0.27084
0.324858
0.326831
0.333681
0.329944
0.331638
0.33529
0.333921
0.337307
0.344724
0.343325
0.341894
0.340431
0.339144
0.32857
0.353692
0.351503
0.352709
0.346349
0.347901
0.349186
0.350442
0.354847
0.35575
0.356599
0.357401
0.222749
0.216305
0.219539
0.225919
0.229059
0.232164
0.235234
0.245089
0.247989
0.242812
0.239118
0.239894
0.236036
0.251535
0.254875
0.260114
0.262807
0.257869
0.265466
0.313033
0.315022
0.316973
0.318897
0.321215
0.323417
0.321467
0.302366
0.304517
0.30663
0.293868
0.296018
0.297871
0.300598
0.296523
0.309162
0.311449
0.284148
0.282052
0.286774
0.28805
0.291696
0.279126
0.276656
0.273405
0.268657
0.271222
0.327112
0.325363
0.332301
0.330277
0.333252
0.335807
0.337495
0.342072
0.345102
0.343485
0.339272
0.340623
0.328831
0.354117
0.352857
0.351664
0.346738
0.348041
0.350555
0.349312
0.355242
0.356017
0.356208
0.35689
0.357702
0.35847
0.213026
0.209725
0.20638
0.213771
0.223652
0.220399
0.217107
0.226774
0.229862
0.232921
0.245701
0.248552
0.24321
0.240338
0.236769
0.250467
0.249304
0.255459
0.260555
0.263216
0.25814
0.266312
0.313442
0.317337
0.315405
0.319626
0.323799
0.320676
0.302751
0.304876
0.306967
0.294512
0.298711
0.30088
0.296712
0.311766
0.309761
0.282165
0.279384
0.286391
0.284515
0.292355
0.289382
0.276946
0.273907
0.268867
0.270092
0.327289
0.32556
0.330834
0.332539
0.334519
0.336077
0.337844
0.345499
0.342172
0.343573
0.34077
0.329268
0.353638
0.355568
0.353128
0.351962
0.34682
0.348109
0.350601
0.349371
0.356525
0.357107
0.35742
0.35796
0.35665
0.358755
0.359506
0.210521
0.20724
0.203009
0.203923
0.1996
0.214657
0.21098
0.224275
0.221175
0.217822
0.227348
0.230387
0.224598
0.230899
0.23391
0.234771
0.246537
0.240517
0.243351
0.237658
0.25552
0.248248
0.251905
0.263406
0.260793
0.258283
0.266154
0.313737
0.317583
0.315677
0.318831
0.323902
0.321635
0.319832
0.317986
0.303009
0.305452
0.307966
0.301012
0.296733
0.298873
0.311963
0.309971
0.27738
0.280883
0.287372
0.284637
0.294438
0.290062
0.274786
0.269624
0.274742
0.272137
0.327606
0.325906
0.330899
0.334569
0.332757
0.336319
0.337748
0.33927
0.345521
0.343735
0.34227
0.340861
0.329461
0.355646
0.354262
0.353288
0.351245
0.348078
0.346768
0.34936
0.351896
0.357583
0.356722
0.358261
0.358462
0.358999
0.357702
0.359775
0.360507
0.171153
0.16745
0.163703
0.207759
0.174823
0.204505
0.200456
0.185641
0.196161
0.189181
0.192686
0.178464
0.182072
0.197076
0.215
0.211861
0.221554
0.218576
0.227622
0.224588
0.231446
0.234757
0.245035
0.240407
0.246742
0.255339
0.250046
0.26108
0.258152
0.265691
0.31391
0.316122
0.316913
0.324956
0.322146
0.320051
0.303407
0.305749
0.308081
0.298705
0.300989
0.312036
0.31002
0.282169
0.279502
0.289815
0.28481
0.294137
0.267315
0.276718
0.271825
0.327502
0.326157
0.33138
0.334752
0.333147
0.336207
0.339255
0.344143
0.341298
0.342521
0.329656
0.356748
0.354589
0.353456
0.350589
0.346629
0.34816
0.352249
0.358615
0.357765
0.359285
0.359472
0.360064
0.35889
0.360789
0.361475
0.357906
0.172123
0.168495
0.164827
0.159932
0.206299
0.176494
0.201464
0.197624
0.186477
0.193666
0.190225
0.183448
0.179989
0.194279
0.211913
0.208226
0.218317
0.221537
0.227817
0.231605
0.237369
0.243419
0.247005
0.252293
0.261106
0.25752
0.264034
0.314208
0.317737
0.323942
0.320275
0.298438
0.303643
0.306058
0.307873
0.300934
0.312156
0.309966
0.281366
0.284982
0.289372
0.297078
0.293671
0.276033
0.269007
0.272555
0.327402
0.325313
0.331405
0.334493
0.337541
0.341115
0.34402
0.329428
0.345118
0.35731
0.355651
0.354489
0.346453
0.350962
0.349193
0.353323
0.359614
0.359365
0.359869
0.360277
0.360448
0.361035
0.360214
0.361742
0.362411
0.35881
0.359858
0.156127
0.152289
0.144505
0.148413
0.172631
0.169087
0.165501
0.157071
0.161097
0.204481
0.178226
0.198128
0.194478
0.197568
0.187495
0.190901
0.184468
0.191174
0.176256
0.211737
0.20543
0.221441
0.217649
0.225137
0.228172
0.233753
0.213659
0.236471
0.241813
0.246375
0.251574
0.255334
0.259055
0.268144
0.263366
0.278278
0.315575
0.318289
0.321937
0.301148
0.307542
0.30159
0.303902
0.314337
0.311432
0.282163
0.286555
0.300526
0.290817
0.296506
0.274957
0.271587
0.325373
0.327495
0.331111
0.333401
0.335666
0.338033
0.340828
0.34351
0.32916
0.344849
0.358683
0.356696
0.355473
0.348373
0.348113
0.350767
0.354164
0.351971
0.360349
0.36081
0.361237
0.361589
0.361974
0.361682
0.362663
0.363313
0.36014
0.361088
0.14056
0.136585
0.13257
0.153122
0.149342
0.141679
0.145526
0.169152
0.162142
0.155063
0.157225
0.196496
0.200684
0.17198
0.180363
0.18443
0.19125
0.187834
0.177378
0.190314
0.209282
0.204833
0.217659
0.22156
0.227218
0.232563
0.217598
0.213531
0.240209
0.247981
0.252866
0.257564
0.269153
0.262334
0.279145
0.317959
0.321495
0.323204
0.320935
0.30705
0.305111
0.313896
0.310804
0.30247
0.283543
0.287828
0.297724
0.290251
0.293685
0.275899
0.272591
0.325425
0.327062
0.332249
0.337661
0.335232
0.344396
0.339751
0.341793
0.330187
0.346544
0.360055
0.358002
0.359042
0.356253
0.348949
0.350481
0.354891
0.351649
0.353303
0.361736
0.362203
0.362371
0.362496
0.362577
0.362906
0.362823
0.363563
0.364182
0.362342
0.36204
0.137585
0.13369
0.128535
0.120355
0.124467
0.149662
0.145954
0.142209
0.165353
0.158333
0.152808
0.167181
0.194893
0.20065
0.173231
0.182286
0.187124
0.179644
0.188814
0.209025
0.223118
0.228283
0.233533
0.21866
0.213378
0.238965
0.243891
0.253939
0.248849
0.267561
0.25861
0.263275
0.280316
0.315738
0.318364
0.321559
0.323203
0.306299
0.311487
0.301559
0.305355
0.286525
0.296579
0.292725
0.278994
0.273117
0.268741
0.326433
0.331683
0.338579
0.335772
0.344863
0.342566
0.339927
0.330969
0.347329
0.36192
0.360876
0.359759
0.357827
0.356589
0.350133
0.354219
0.352364
0.349643
0.362861
0.363094
0.363249
0.36344
0.363781
0.363806
0.364417
0.365018
0.363397
0.36296
0.36371
0.363583
0.10785
0.112053
0.116232
0.134698
0.125286
0.129755
0.121295
0.145807
0.142049
0.0993282
0.103596
0.0950059
0.160785
0.155727
0.150631
0.164871
0.171777
0.193176
0.198777
0.178004
0.183034
0.186663
0.206822
0.211114
0.223656
0.232225
0.216467
0.221165
0.239573
0.245857
0.246932
0.254866
0.263419
0.259253
0.282974
0.324053
0.315044
0.31843
0.320815
0.308883
0.312436
0.302324
0.306135
0.287471
0.297174
0.293525
0.27707
0.281973
0.272978
0.264736
0.269095
0.327078
0.331595
0.335192
0.337987
0.345534
0.343077
0.340623
0.33448
0.347922
0.361523
0.362624
0.361121
0.359472
0.357594
0.356279
0.351881
0.353845
0.35021
0.363958
0.364101
0.364334
0.36443
0.364622
0.364623
0.365239
0.365819
0.364586
0.363839
0.364564
0.113244
0.104782
0.108883
0.117548
0.137642
0.130385
0.125413
0.140939
0.0906664
0.0862871
0.100117
0.0933621
0.145855
0.158612
0.15249
0.155658
0.172654
0.163489
0.196367
0.191143
0.180948
0.203632
0.21109
0.232809
0.22771
0.218117
0.225373
0.237059
0.243689
0.250272
0.25719
0.247898
0.286081
0.324705
0.31991
0.31316
0.315803
0.309648
0.301308
0.308444
0.305033
0.291766
0.295604
0.280361
0.286064
0.2764
0.260439
0.269084
0.327778
0.330769
0.337171
0.339851
0.34607
0.342461
0.334918
0.348397
0.362909
0.36184
0.360692
0.359106
0.355857
0.357785
0.352279
0.354362
0.350668
0.365571
0.364787
0.365016
0.365298
0.365367
0.365431
0.365395
0.366026
0.366587
0.365871
0.364665
0.366103
0.365553
0.36448
0.364243
0.06396
0.101073
0.112564
0.10548
0.116812
0.132331
0.121858
0.13862
0.0873927
0.0818809
0.0962757
0.0913047
0.0774519
0.0684934
0.0730111
0.0784893
0.143701
0.150088
0.150739
0.157735
0.165962
0.173152
0.193334
0.182794
0.198026
0.20523
0.211472
0.229833
0.217553
0.224962
0.236425
0.241561
0.254153
0.246754
0.289949
0.320437
0.323381
0.317176
0.313968
0.311079
0.30166
0.307028
0.300038
0.296661
0.26015
0.282255
0.287854
0.278222
0.272163
0.265932
0.326828
0.33125
0.346469
0.339133
0.342868
0.333874
0.336937
0.348917
0.362384
0.360358
0.359056
0.356284
0.352743
0.354793
0.351018
0.366439
0.366133
0.364986
0.365581
0.366122
0.365802
0.366061
0.366248
0.366545
0.366781
0.367321
0.367169
0.367068
0.366132
0.366606
0.365952
0.364693
0.0648499
0.0593493
0.0501465
0.0547646
0.0312245
0.0359785
0.0453927
0.0406893
0.100396
0.107712
0.114265
0.129575
0.122984
0.135195
0.0832631
0.0930996
0.0742389
0.0699649
0.0780909
0.066011
0.143633
0.134389
0.151374
0.161925
0.173681
0.186925
0.178868
0.191234
0.198001
0.20535
0.214263
0.230037
0.223084
0.235137
0.243357
0.251414
0.293029
0.324199
0.318922
0.31428
0.309487
0.312836
0.303293
0.298207
0.257278
0.262506
0.283531
0.289177
0.278443
0.273665
0.26762
0.328671
0.331312
0.34587
0.340711
0.343176
0.33461
0.339672
0.337286
0.348047
0.36079
0.362835
0.360228
0.358548
0.356696
0.355174
0.35299
0.351149
0.366961
0.366389
0.366844
0.366414
0.366792
0.366705
0.36432
0.36784
0.366988
0.367734
0.367522
0.368023
0.367618
0.368361
0.368438
0.367505
0.367297
0.366648
0.365673
0.0263643
0.0291036
0.0587918
0.0507552
0.0348461
0.0420425
0.0214918
0.00677674
0.0116541
0.0165563
0.094771
0.101296
0.108587
0.116167
0.124456
0.085351
0.0721661
0.0646698
0.0845512
0.138197
0.130427
0.144238
0.156796
0.172838
0.150595
0.185241
0.178834
0.193295
0.2056
0.21188
0.218835
0.230011
0.237296
0.239767
0.245523
0.251894
0.325909
0.296081
0.32293
0.317404
0.311197
0.306151
0.314057
0.301187
0.260702
0.290097
0.283147
0.277165
0.27009
0.328559
0.332104
0.345015
0.342156
0.334599
0.339999
0.337217
0.347148
0.349353
0.360492
0.361867
0.362369
0.357992
0.35547
0.353514
0.352743
0.368474
0.367536
0.367526
0.367493
0.367171
0.367315
0.367417
0.363901
0.368463
0.368485
0.367716
0.368279
0.358971
0.368219
0.368692
0.369087
0.369724
0.368281
0.368993
0.369374
0.368485
0.368929
0.367904
0.367009
0.365995
0.0246711
0.0331686
0.0508282
0.0407962
3.58006e-28
0.0154395
0.0967956
0.103074
0.111225
0.118189
0.0643363
0.0725349
0.0542406
0.0796587
0.134848
0.125235
0.138878
0.166976
0.15718
0.140633
0.179374
0.190085
0.19875
0.207108
0.219263
0.229492
0.233537
0.241898
0.247365
0.257512
0.324129
0.295387
0.291971
0.31839
0.304295
0.309321
0.313591
0.300505
0.268565
0.262778
0.281926
0.287393
0.275842
0.328005
0.33084
0.345
0.342664
0.340301
0.335919
0.347057
0.350845
0.360901
0.362247
0.36348
0.352883
0.357212
0.355666
0.354639
0.368727
0.368094
0.367871
0.367999
0.364875
0.36908
0.368392
0.368916
0.359449
0.361082
0.368874
0.369326
0.369678
0.370281
0.370209
0.369762
0.369843
0.369636
0.369493
0.369292
0.369601
0.368212
0.367877
0.366235
0.0293809
0.0421168
3.06217e-32
0.0886065
0.0962661
0.108272
0.0631243
0.0484731
0.0627637
0.0758331
0.11976
0.127186
0.164398
0.153713
0.138673
0.193707
0.175739
0.203821
0.214715
0.223658
0.231008
0.258982
0.243836
0.251858
0.326565
0.320957
0.29645
0.290358
0.31641
0.306704
0.311738
0.300952
0.265221
0.26883
0.281947
0.273752
0.285662
0.330445
0.334405
0.343859
0.346284
0.342305
0.338981
0.349871
0.362479
0.364413
0.353665
0.356958
0.356111
0.368739
0.368653
0.368533
0.365787
0.369671
0.36963
0.369035
0.369569
0.362514
0.359432
0.361806
0.370182
0.369495
0.369927
0.370223
0.370522
0.370815
0.370965
0.370932
0.370877
0.37079
0.370529
0.370349
0.370632
0.369947
0.367355
0.369129
0.368323
0.0232619
3.53508e-32
0.0846131
0.0940131
0.100575
0.0431882
0.0623415
0.113223
0.122729
0.136593
0.166525
0.151818
0.149893
0.174516
0.207435
0.190016
0.213871
0.220592
0.227696
0.237299
0.245116
0.256593
0.264014
0.326846
0.323503
0.319577
0.298251
0.290838
0.315406
0.308106
0.30576
0.271825
0.270613
0.281311
0.287504
0.330097
0.333451
0.3363
0.345516
0.348754
0.343154
0.339645
0.351577
0.364576
0.354296
0.357757
0.371371
0.369273
0.369168
0.371415
0.366298
0.370194
0.370138
0.369644
0.370061
0.363897
0.360229
0.362444
0.370929
0.370084
0.370495
0.370753
0.370724
0.37138
0.371455
0.371888
0.371725
0.371287
0.370285
0.371557
0.370965
0.368744
0.367863
0.370101
0.0220963
3.75835e-32
0.0801233
0.0953772
0.0437219
0.0610791
0.0982243
0.112912
0.129815
0.161105
0.145644
0.169856
0.183917
0.200531
0.19378
0.211835
0.220546
0.230346
0.238866
0.256893
0.249627
0.263733
0.224708
0.328233
0.323117
0.316746
0.29997
0.293821
0.30572
0.309951
0.277008
0.272975
0.295463
0.283047
0.289014
0.332458
0.337144
0.347257
0.351312
0.344778
0.341746
0.35418
0.365742
0.356618
0.358503
0.369897
0.371877
0.366917
0.371604
0.370729
0.370677
0.370221
0.370604
0.37038
0.370515
0.364469
0.366326
0.360968
0.363187
0.371875
0.370641
0.371181
0.37103
0.371306
0.371763
0.371888
0.372321
0.372343
0.372616
0.372333
0.372141
0.372374
0.371305
0.371941
0.371184
0.369287
0.368973
0.370587
0.0222571
3.73804e-32
0.0776081
0.0453101
0.101043
0.114334
0.128972
0.140873
0.160892
0.179467
0.201925
0.188671
0.209959
0.233003
0.246185
0.253965
0.263365
0.226422
0.21653
0.328061
0.322046
0.331612
0.321078
0.314484
0.301243
0.308973
0.312833
0.299305
0.279346
0.270971
0.292754
0.285489
0.335396
0.339025
0.337271
0.349107
0.352062
0.346727
0.343195
0.354601
0.367539
0.357481
0.359242
0.37175
0.371118
0.370782
0.371038
0.370931
0.365229
0.367112
0.361647
0.36386
0.372607
0.371177
0.371658
0.3716
0.371531
0.372314
0.371959
0.372198
0.372706
0.372756
0.373081
0.373034
0.373187
0.372987
0.37287
0.373108
0.372735
0.372325
0.371717
0.372199
0.370342
0.369592
0.371533
0.0231761
3.74356e-32
0.0804207
0.067946
0.046317
0.0999769
0.152443
0.117592
0.135497
0.171299
0.19038
0.205876
0.20178
0.241418
0.251499
0.256691
0.264666
0.226457
0.236816
0.217309
0.326067
0.330868
0.323443
0.317109
0.304619
0.311467
0.303044
0.295114
0.281585
0.273993
0.287171
0.291334
0.335307
0.332108
0.341471
0.338436
0.352377
0.349524
0.347026
0.355476
0.36881
0.358344
0.360167
0.372628
0.373392
0.371527
0.371318
0.371432
0.365895
0.367762
0.362608
0.364854
0.373214
0.371671
0.371984
0.372139
0.371999
0.372692
0.372583
0.373063
0.373057
0.373249
0.373431
0.373705
0.373551
0.373693
0.373586
0.373431
0.373393
0.373708
0.37302
0.372577
0.372829
0.373046
0.370235
0.370903
0.372091
0.0230845
3.7547e-32
0.0691815
0.046243
0.0871205
0.164595
0.148337
0.103905
0.122932
0.215547
0.203482
0.174937
0.192122
0.248823
0.266033
0.25633
0.243667
0.226511
0.314621
0.326877
0.319613
0.328336
0.308292
0.300439
0.298027
0.294367
0.273146
0.281206
0.287875
0.332764
0.338522
0.342543
0.341397
0.346374
0.353355
0.349973
0.35664
0.369803
0.368646
0.359394
0.360981
0.354484
0.371899
0.371795
0.370839
0.367091
0.363432
0.365668
0.373778
0.372127
0.372525
0.372334
0.372412
0.372433
0.37303
0.372992
0.373439
0.373366
0.373736
0.374064
0.373965
0.374119
0.374015
0.37396
0.373969
0.373681
0.374217
0.373082
0.373811
0.373268
0.373503
0.371761
0.37288
0.0249784
3.755e-32
0.0654973
0.0476166
0.0833969
0.162154
0.136605
0.104319
0.118948
0.213824
0.193485
0.173034
0.184352
0.254108
0.265638
0.251891
0.237036
0.222963
0.318955
0.312464
0.325148
0.32964
0.300552
0.305576
0.295853
0.278064
0.284767
0.269921
0.335321
0.33869
0.344545
0.34258
0.348512
0.352207
0.360566
0.358802
0.355637
0.370557
0.369449
0.368129
0.362317
0.37224
0.37163
0.374287
0.3736
0.366727
0.364834
0.374209
0.372549
0.372652
0.372883
0.372736
0.372834
0.373334
0.373281
0.373728
0.373645
0.374001
0.374031
0.374317
0.374354
0.374468
0.374452
0.37439
0.374229
0.374601
0.373664
0.374365
0.374154
0.374127
0.373951
0.372818
0.372331
0.0247812
3.74449e-32
0.0686588
0.0467207
0.0883657
0.154295
0.122523
0.141455
0.104553
0.167943
0.203366
0.183672
0.260406
0.247238
0.231819
0.215459
0.310493
0.31914
0.320782
0.331901
0.327713
0.310446
0.304739
0.298884
0.289318
0.28518
0.279612
0.269636
0.338199
0.346225
0.343257
0.351459
0.354649
0.361736
0.360512
0.357869
0.37042
0.369062
0.364397
0.37459
0.374293
0.373367
0.366756
0.374621
0.372939
0.373031
0.37319
0.373119
0.373202
0.373602
0.373549
0.374115
0.373925
0.373887
0.374369
0.374238
0.37456
0.374608
0.374735
0.374699
0.374773
0.374627
0.374878
0.374475
0.374836
0.374752
0.374626
0.374383
0.373999
0.372225
0.373394
0.0249413
3.74962e-32
0.0675796
0.0478043
0.089317
0.159186
0.12618
0.141837
0.108235
0.185978
0.194659
0.171813
0.25544
0.243835
0.226587
0.211314
0.315955
0.323621
0.325461
0.334782
0.329644
0.331257
0.311852
0.307335
0.301829
0.293706
0.286673
0.264897
0.276453
0.263491
0.340032
0.344576
0.347342
0.352279
0.356873
0.36297
0.361393
0.359601
0.36886
0.370666
0.365631
0.374831
0.374653
0.373977
0.368015
0.374334
0.374848
0.373296
0.373386
0.373456
0.373536
0.373841
0.373762
0.374218
0.374196
0.374104
0.37452
0.37473
0.374701
0.374854
0.374921
0.374912
0.374968
0.37496
0.375029
0.374855
0.374982
0.374933
0.374944
0.374248
0.374933
0.374727
0.372143
0.373373
0.374245
0.025733
3.75686e-32
0.0683317
0.0481767
0.0873291
0.15549
0.126213
0.140735
0.110369
0.211101
0.185145
0.198593
0.175125
0.25239
0.240273
0.222863
0.32001
0.326578
0.332027
0.336024
0.319148
0.310564
0.28011
0.293217
0.30079
0.288229
0.273084
0.262055
0.341906
0.345917
0.349708
0.353966
0.357724
0.363716
0.361992
0.369748
0.371351
0.3671
0.368863
0.374426
0.374969
0.374826
0.373623
0.3737
0.373837
0.374052
0.373979
0.374813
0.374409
0.374334
0.37429
0.37461
0.374743
0.374939
0.374901
0.37499
0.375033
0.37502
0.375049
0.375043
0.375045
0.375045
0.375038
0.375038
0.375012
0.375051
0.375047
0.37505
0.375049
0.374948
0.374987
0.372834
0.373855
0.374531
0.0246326
3.72526e-32
0.0704201
0.04955
0.0908705
0.15603
0.126368
0.11109
0.170267
0.213927
0.19815
0.190004
0.2533
0.238453
0.225488
0.260517
0.32436
0.32932
0.33445
0.339274
0.317294
0.314756
0.308376
0.278646
0.286284
0.305234
0.293559
0.299656
0.275371
0.343858
0.350287
0.35564
0.360179
0.364968
0.363633
0.36753
0.372254
0.370441
0.369367
0.373913
0.374849
0.361916
0.374105
0.374239
0.37417
0.374921
0.375076
0.374673
0.374567
0.37454
0.37445
0.374789
0.37502
0.374998
0.375003
0.375041
0.37505
0.375046
0.375047
0.375014
0.375001
0.375011
0.374952
0.374926
0.375012
0.375038
0.37497
0.374991
0.37501
0.375073
0.374158
0.37335
0.374694
0.0258087
3.77705e-32
0.07229
0.049245
0.0915167
0.145783
0.158886
0.128431
0.110081
0.179212
0.186536
0.217406
0.201412
0.256286
0.246197
0.23489
0.227922
0.267443
0.325226
0.33211
0.339295
0.320851
0.313614
0.306858
0.283303
0.290963
0.300422
0.28014
0.345793
0.353336
0.349701
0.355944
0.35819
0.366211
0.364713
0.372803
0.369313
0.370796
0.372083
0.374928
0.360634
0.374891
0.374338
0.374398
0.375074
0.374854
0.37496
0.375042
0.374727
0.374586
0.374704
0.374673
0.374632
0.374853
0.374857
0.375007
0.375039
0.375048
0.375045
0.375048
0.375025
0.374969
0.374979
0.374852
0.374927
0.374867
0.374647
0.374689
0.374843
0.374637
0.374741
0.374732
0.37474
0.374297
0.374806
0.375076
0.0255891
3.6332e-28
0.0699179
0.0485137
0.0926416
0.146888
0.162357
0.127411
0.112377
0.175924
0.191888
0.227043
0.202125
0.213904
0.266176
0.261178
0.236077
0.248528
0.275666
0.328158
0.334928
0.341695
0.321601
0.313086
0.303963