# vtk DataFile Version 3.0
VTK output from FreeFEM
ASCII
DATASET UNSTRUCTURED_GRID
POINTS 27254 float
20 0.709709 0
20 0.743065 0
20 0.749736 0
20 0.71638 0
20 0.723051 0
20 0.729723 0
20 0.736394 0
19.9952 0.738156 0
20 0.676352 0
20 0.683023 0
20 0.703037 0
20 0.689695 0
20 0.696366 0
19.9952 0.711647 0
19.9951 0.704919 0
20 0.642995 0
20 0.756408 0
19.9953 0.744886 0
19.9952 0.751709 0
19.9952 0.718275 0
19.9952 0.724902 0
19.9952 0.731529 0
19.9904 0.739841 0
20 0.763079 0
20 0.636324 0
20 0.629653 0
20 0.529583 0
20 0.51624 0
20 0.522912 0
19.9952 0.524749 0
20 0.496226 0
19.9952 0.638132 0
20 0.649667 0
20 0.656338 0
20 0.663009 0
20 0.669681 0
19.9952 0.671582 0
19.9952 0.68483 0
19.9952 0.678206 0
19.9901 0.7133 0
19.9951 0.698293 0
19.9952 0.691454 0
19.9901 0.706719 0
19.9899 0.699925 0
19.9902 0.686322 0
19.9952 0.644753 0
19.9952 0.758339 0
19.9901 0.746833 0
19.9901 0.753419 0
19.9901 0.719881 0
19.9901 0.726463 0
19.9852 0.734587 0
19.9849 0.741762 0
19.9952 0.764969 0
20 0.76975 0
20 0.436185 0
20 0.429513 0
20 0.442856 0
20 0.449527 0
19.9952 0.437951 0
20 0.456199 0
20 0.589625 0
20 0.596296 0
20 0.602968 0
20 0.609639 0
19.9952 0.631511 0
19.9951 0.624772 0
20 0.61631 0
20 0.622981 0
20 0.56294 0
20 0.569611 0
20 0.542926 0
20 0.536254 0
19.9952 0.53136 0
20 0.556268 0
20 0.549597 0
20 0.576282 0
20 0.582954 0
19.9951 0.584681 0
20 0.502898 0
20 0.509569 0
19.995 0.511385 0
19.9952 0.518139 0
19.99 0.519636 0
19.99 0.526182 0
19.995 0.498168 0
20 0.476213 0
20 0.489555 0
20 0.482884 0
19.9952 0.491259 0
20 0.46287 0
20 0.469541 0
19.995 0.471287 0
19.9902 0.633032 0
19.9902 0.6396 0
19.9952 0.651374 0
19.9902 0.666596 0
19.9951 0.658225 0
19.9951 0.664848 0
19.9902 0.673171 0
19.9902 0.679747 0
19.9849 0.680956 0
19.9849 0.714648 0
19.9849 0.708093 0
19.9899 0.693346 0
19.9849 0.701581 0
19.9846 0.688184 0
19.9902 0.646168 0
19.9901 0.760006 0
19.9849 0.748272 0
19.9849 0.754846 0
19.9849 0.721159 0
19.9799 0.729082 0
19.9794 0.736454 0
19.9794 0.74295 0
19.9901 0.766593 0
19.9952 0.771599 0
20 0.776422 0
20 0.409499 0
20 0.416171 0
20 0.402828 0
19.9951 0.404797 0
20 0.396157 0
20 0.422842 0
19.9952 0.431353 0
19.9901 0.432694 0
19.9952 0.444548 0
19.995 0.45148 0
19.9901 0.439214 0
19.995 0.458082 0
19.9953 0.591429 0
19.9953 0.598046 0
19.9951 0.604914 0
19.9951 0.611533 0
19.9902 0.626464 0
19.9951 0.618153 0
19.985 0.627677 0
19.9951 0.55822 0
19.9951 0.564835 0
19.9951 0.571451 0
19.99 0.532709 0
19.9953 0.544724 0
19.9903 0.539576 0
19.9953 0.551336 0
19.99 0.553244 0
19.9951 0.578066 0
19.9903 0.586304 0
19.995 0.504777 0
19.99 0.51309 0
19.9846 0.520682 0
19.9846 0.514205 0
19.9789 0.52129 0
19.9846 0.527161 0
19.9897 0.499681 0
19.9901 0.492494 0
19.9952 0.47805 0
19.9952 0.484654 0
19.9901 0.485976 0
19.995 0.464685 0
19.9901 0.472909 0
19.985 0.63419 0
19.9846 0.641457 0
19.9849 0.667899 0
19.99 0.65322 0
19.99 0.659793 0
19.9849 0.674423 0
19.9795 0.668869 0
19.979 0.682778 0
19.9794 0.715651 0
19.9794 0.709167 0
19.9794 0.702685 0
19.9794 0.6962 0
19.9737 0.690613 0
19.9846 0.647982 0
19.9849 0.761388 0
19.9794 0.749444 0
19.9794 0.75594 0
19.9743 0.723377 0
19.9738 0.730966 0
19.9738 0.737414 0
19.9738 0.74386 0
19.9849 0.76793 0
19.9901 0.77318 0
19.9952 0.778229 0
20 0.783093 0
20 0.3628 0
20 0.349457 0
20 0.356129 0
20 0.369471 0
20 0.376143 0
20 0.382814 0
20 0.389485 0
19.9951 0.411392 0
19.9951 0.417987 0
19.9897 0.406256 0
19.9949 0.398025 0
19.9897 0.399743 0
19.9953 0.391243 0
19.9901 0.426178 0
19.9843 0.433983 0
19.9897 0.44645 0
19.9897 0.452978 0
19.9841 0.441074 0
19.9897 0.459497 0
19.99 0.593384 0
19.99 0.59995 0
19.99 0.606513 0
19.99 0.61308 0
19.985 0.621164 0
19.9791 0.628986 0
19.9795 0.622054 0
19.99 0.5598 0
19.99 0.566357 0
19.99 0.572903 0
19.9795 0.53479 0
19.9847 0.540981 0
19.9897 0.546401 0
19.9846 0.554477 0
19.9789 0.542457 0
19.985 0.580894 0
19.9846 0.588219 0
19.9846 0.507727 0
19.9789 0.502073 0
19.9789 0.514884 0
19.9733 0.518401 0
19.9736 0.528613 0
19.9841 0.494304 0
19.9841 0.487832 0
19.9901 0.479442 0
19.9846 0.46743 0
19.9846 0.473888 0
19.979 0.6425 0
19.979 0.636036 0
19.9795 0.662399 0
19.9846 0.654502 0
19.9737 0.666166 0
19.9744 0.676539 0
19.9731 0.683584 0
19.9737 0.703476 0
19.9685 0.717431 0
19.9737 0.709908 0
19.9678 0.691166 0
19.9737 0.697046 0
19.979 0.648965 0
19.9743 0.763769 0
19.9738 0.756754 0
19.9738 0.750307 0
19.9679 0.725255 0
19.9679 0.731653 0
19.9679 0.744445 0
19.9679 0.738049 0
19.9743 0.77022 0
19.9852 0.774752 0
19.9798 0.775865 0
19.9903 0.779968 0
19.9952 0.784954 0
20 0.789764 0
20 0.342786 0
20 0.336115 0
20 0.329444 0
19.9951 0.344298 0
19.9951 0.364697 0
19.9949 0.357907 0
19.9953 0.351108 0
19.9951 0.371282 0
19.9951 0.377867 0
19.9951 0.384452 0
19.9897 0.412768 0
19.9897 0.41928 0
19.984 0.407154 0
19.984 0.400731 0
19.9893 0.392842 0
19.9846 0.423685 0
19.9788 0.421015 0
19.978 0.435351 0
19.9841 0.447524 0
19.9841 0.453975 0
19.978 0.441717 0
19.9788 0.461589 0
19.9846 0.594727 0
19.9846 0.607743 0
19.9846 0.601236 0
19.9795 0.6156 0
19.9731 0.630352 0
19.9737 0.619248 0
19.9846 0.560971 0
19.9846 0.567466 0
19.9846 0.573959 0
19.9729 0.536646 0
19.9789 0.548885 0
19.9789 0.555314 0
19.9729 0.543005 0
19.9789 0.589245 0
19.9789 0.582796 0
19.9728 0.502388 0
19.9781 0.494979 0
19.9672 0.513839 0
19.9728 0.508717 0
19.9665 0.530481 0
19.9674 0.522106 0
19.9782 0.488583 0
19.9788 0.480721 0
19.9726 0.467964 0
19.9788 0.471017 0
19.9731 0.643165 0
19.9731 0.636758 0
19.9737 0.656651 0
19.9677 0.663341 0
19.967 0.671292 0
19.967 0.677663 0
19.9616 0.685036 0
19.9617 0.719312 0
19.9678 0.70392 0
19.9678 0.710296 0
19.9616 0.697677 0
19.9677 0.650632 0
19.9686 0.761059 0
19.9679 0.772099 0
19.9626 0.758245 0
19.9626 0.751894 0
19.9617 0.725658 0
19.9617 0.732001 0
19.9617 0.744689 0
19.9617 0.738345 0
19.9738 0.777761 0
19.9852 0.781296 0
19.9794 0.783199 0
19.9903 0.786556 0
19.9679 0.778511 0
19.9952 0.791585 0
20 0.796436 0
19.9951 0.337725 0
19.9951 0.331152 0
20 0.322772 0
19.9951 0.324579 0
20 0.316101 0
19.9893 0.346097 0
19.9898 0.338647 0
19.9897 0.366005 0
19.9897 0.359513 0
19.9893 0.352581 0
19.9897 0.372497 0
19.9897 0.378988 0
19.984 0.366691 0
19.9836 0.380087 0
19.9847 0.386599 0
19.9779 0.388471 0
19.9788 0.414672 0
19.9779 0.401129 0
19.9779 0.407457 0
19.9779 0.3948 0
19.9716 0.435509 0
19.9719 0.41858 0
19.9725 0.427037 0
19.978 0.45445 0
19.978 0.448084 0
19.9689 0.442057 0
19.9661 0.461179 0
19.9789 0.595694 0
19.9789 0.608589 0
19.9789 0.602141 0
19.9737 0.612855 0
19.9669 0.630738 0
19.9676 0.622635 0
19.9676 0.616307 0
19.9676 0.609977 0
19.9789 0.561743 0
19.9737 0.569242 0
19.973 0.577106 0
19.9729 0.555726 0
19.9665 0.543054 0
19.9729 0.549365 0
19.973 0.589877 0
19.973 0.583491 0
19.9663 0.489714 0
19.9663 0.498945 0
19.9585 0.516549 0
19.9608 0.509026 0
19.9599 0.536428 0
19.9599 0.524008 0
19.9595 0.482976 0
19.9651 0.469846 0
19.9691 0.482876 0
19.9718 0.476202 0
19.9646 0.644331 0
19.9614 0.638031 0
19.9614 0.656911 0
19.9607 0.671487 0
19.9611 0.664199 0
19.9551 0.678647 0
19.9518 0.684677 0
19.9551 0.69117 0
19.9553 0.719419 0
19.9562 0.711055 0
19.9589 0.704366 0
19.9497 0.698065 0
19.9545 0.651375 0
19.9619 0.772581 0
19.9626 0.764595 0
19.9559 0.759132 0
19.9559 0.748051 0
19.952 0.731839 0
19.9487 0.725393 0
19.9553 0.738286 0
19.9499 0.751533 0
19.9738 0.784221 0
19.9619 0.778946 0
19.9848 0.78844 0
19.9794 0.789704 0
19.9903 0.793145 0
19.9679 0.784925 0
19.9952 0.798216 0
20 0.803107 0
20 0.26273 0
20 0.256059 0
20 0.249388 0
19.9898 0.332182 0
20 0.269402 0
19.9898 0.325717 0
19.9949 0.317771 0
20 0.289416 0
20 0.30943 0
20 0.296087 0
20 0.302758 0
20 0.276073 0
20 0.282744 0
19.9949 0.311203 0
19.9832 0.346801 0
19.9832 0.340424 0
19.984 0.360301 0
19.9777 0.354116 0
19.984 0.373081 0
19.9777 0.366677 0
19.9769 0.381264 0
19.9713 0.388431 0
19.9725 0.411261 0
19.9713 0.400884 0
19.9652 0.41516 0
19.9647 0.435074 0
19.9647 0.42271 0
19.9661 0.448778 0
19.959 0.441731 0
19.959 0.46004 0
19.973 0.596261 0
19.9676 0.603648 0
19.9613 0.606302 0
19.9549 0.634525 0
19.9604 0.624441 0
19.9608 0.617069 0
19.9675 0.562947 0
19.9671 0.570163 0
19.9667 0.577458 0
19.9599 0.548848 0
19.9665 0.555628 0
19.9667 0.590096 0
19.9602 0.583623 0
19.9564 0.502395 0
19.9595 0.4953 0
19.9528 0.523294 0
19.9533 0.509489 0
19.9528 0.535552 0
19.9519 0.464085 0
19.9522 0.48798 0
19.958 0.475402 0
19.9549 0.643966 0
19.9488 0.638963 0
19.954 0.658783 0
19.9518 0.672215 0
19.9484 0.665783 0
19.9484 0.678183 0
19.9428 0.691069 0
19.9487 0.712928 0
19.9418 0.700002 0
19.9492 0.705496 0
19.9471 0.652094 0
19.9555 0.779058 0
19.9555 0.766429 0
19.949 0.760047 0
19.9432 0.744611 0
19.9418 0.724698 0
19.9432 0.732241 0
19.9422 0.753425 0
19.9738 0.790681 0
19.9619 0.785311 0
19.9849 0.795013 0
19.9794 0.79621 0
19.9901 0.800123 0
19.9626 0.792451 0
19.9951 0.805032 0
20 0.809778 0
19.9501 0.786179 0
19.9949 0.264489 0
19.9949 0.25794 0
19.9949 0.251383 0
20 0.242716 0
19.9844 0.329271 0
19.9898 0.272457 0
19.9839 0.319755 0
19.9892 0.31226 0
19.9952 0.290987 0
19.9949 0.304635 0
19.9949 0.298067 0
19.9898 0.285314 0
19.9898 0.278886 0
19.9892 0.305806 0
19.9766 0.34052 0
19.9786 0.333127 0
19.9709 0.353578 0
19.9744 0.360256 0
19.9723 0.373487 0
19.9642 0.381587 0
19.9585 0.39414 0
19.9657 0.40761 0
19.9574 0.415751 0
19.9574 0.427911 0
19.9548 0.448849 0
19.9516 0.440228 0
19.9505 0.455967 0
19.9613 0.597245 0
19.9546 0.609084 0
19.948 0.63086 0
19.9537 0.617861 0
19.9471 0.548038 0
19.9605 0.563681 0
19.9602 0.571124 0
19.9533 0.5768 0
19.9543 0.555485 0
19.9546 0.590511 0
19.9476 0.583445 0
19.9465 0.500219 0
19.9454 0.509972 0
19.9454 0.522059 0
19.9384 0.544076 0
19.9396 0.534232 0
19.9446 0.486209 0
19.9446 0.468285 0
19.9446 0.477247 0
19.9424 0.643578 0
19.9409 0.635849 0
19.9414 0.658875 0
19.9414 0.671146 0
19.9357 0.683747 0
19.9346 0.69916 0
19.9418 0.71235 0
19.9398 0.651245 0
19.9346 0.717496 0
19.9435 0.782528 0
19.949 0.77257 0
19.9422 0.76584 0
19.9289 0.723881 0
[...]
POINT_DATA 27254
VECTORS Velocity float
6.86064 0.000113133 0.0
6.99739 0.000116473 0.0
7.02277 0.000133088 0.0
6.88935 0.000105007 0.0
6.91736 0.00011175 0.0
6.94473 8.78797e-05 0.0
6.97136 0.000108295 0.0
6.97827 8.76345e-05 0.0
6.70721 0.000122266 0.0
6.73921 7.67366e-05 0.0
6.83129 0.000100587 0.0
6.77056 0.000137647 0.0
6.80126 0.000103307 0.0
6.86903 0.000108218 0.0
6.83962 0.000101258 0.0
6.53708 9.89968e-05 0.0
7.04744 0.000139635 0.0
7.0044 0.000128021 0.0
7.0301 0.000117458 0.0
6.89735 0.000105908 0.0
6.92499 0.000118436 0.0
6.95199 0.000104106 0.0
6.98495 0.000105489 0.0
7.07145 0.0001253 0.0
6.50107 0.000120131 0.0
6.46435 2.64152e-05 0.0
5.83388 0.000113588 0.0
5.73843 0.000116621 0.0
5.78652 0.00010509 0.0
5.79956 7.91054e-05 0.0
5.59044 2.70211e-05 0.0
6.51089 7.73966e-05 0.0
6.57247 0.000107029 0.0
6.60712 0.000115361 0.0
6.64118 0.000102048 0.0
6.6745 8.85156e-05 0.0
6.68388 9.15716e-05 0.0
6.74774 9.5708e-05 0.0
6.71613 0.000109443 0.0
6.87617 0.000119561 0.0
6.80997 0.000116497 0.0
6.77871 8.84267e-05 0.0
6.84759 9.97544e-05 0.0
6.81734 9.91827e-05 0.0
6.75479 0.000103556 0.0
6.54644 0.000114223 0.0
7.05445 0.00012749 0.0
7.01181 0.000131973 0.0
7.03648 0.000140866 0.0
6.90414 9.68717e-05 0.0
6.93143 0.000121433 0.0
6.96422 9.19894e-05 0.0
6.99237 0.000147594 0.0
7.07811 0.000132052 0.0
7.0948 0.000137946 0.0
5.11009 9.08985e-05 0.0
5.05329 -1.63809e-05 0.0
5.1661 9.33537e-05 0.0
5.2215 9.69907e-05 0.0
5.12495 4.78537e-05 0.0
5.2762 6.70322e-05 0.0
6.23018 0.000140499 0.0
6.2709 9.85921e-05 0.0
6.31091 0.000140412 0.0
6.35032 8.67373e-05 0.0
6.47462 0.000126845 0.0
6.43706 0.000122164 0.0
6.38897 4.92672e-05 0.0
6.42695 0.000108753 0.0
6.06075 6.1639e-05 0.0
6.10411 0.000100543 0.0
5.92656 8.72583e-05 0.0
5.88055 2.02539e-05 0.0
5.84636 8.62232e-05 0.0
6.01667 0.000134523 0.0
5.97196 8.95438e-05 0.0
6.14682 8.00182e-05 0.0
6.18878 6.745e-05 0.0
6.19955 9.84439e-05 0.0
5.64044 7.80925e-05 0.0
5.68972 9.42845e-05 0.0
5.703 2.06527e-05 0.0
5.75222 0.000113874 0.0
5.76298 0.000114624 0.0
5.80985 0.000124355 0.0
5.60503 9.16837e-05 0.0
5.43628 0.000101066 0.0
5.5397 9.87372e-05 0.0
5.48837 5.49971e-05 0.0
5.5527 0.000126209 0.0
5.33022 4.60317e-05 0.0
5.38355 8.92227e-05 0.0
5.3974 3.78633e-05 0.0
6.48302 0.000124137 0.0
6.51883 9.8844e-05 0.0
6.58138 6.74326e-05 0.0
6.65916 8.99233e-05 0.0
6.61681 0.000107764 0.0
6.65039 9.07138e-05 0.0
6.69173 8.48488e-05 0.0
6.72356 0.000123897 0.0
6.72934 8.62237e-05 0.0
6.88194 0.000120243 0.0
6.85359 9.49227e-05 0.0
6.78746 0.000127068 0.0
6.82477 8.95851e-05 0.0
6.76352 0.000107792 0.0
6.55401 0.000115527 0.0
7.06047 0.000126064 0.0
7.01724 9.84027e-05 0.0
7.04171 0.000126666 0.0
6.90947 0.000111542 0.0
6.94213 9.61203e-05 0.0
6.97164 0.000113164 0.0
6.997 0.000101371 0.0
7.08385 0.000116733 0.0
7.10113 0.000136497 0.0
7.11747 0.000105836 0.0
4.87923 1.74175e-05 0.0
4.93801 0.000116403 0.0
4.81989 9.7319e-05 0.0
4.83746 6.60129e-05 0.0
4.75976 4.58966e-05 0.0
4.99597 3.87545e-05 0.0
5.06904 0.000115583 0.0
5.08046 8.82168e-05 0.0
5.1802 7.09876e-05 0.0
5.23755 5.99743e-05 0.0
5.13559 7.20684e-05 0.0
5.2915 0.000102291 0.0
6.24125 9.69347e-05 0.0
6.28144 0.000117041 0.0
6.32243 9.59827e-05 0.0
6.36134 0.000123976 0.0
6.44664 6.22821e-05 0.0
6.39949 5.32204e-05 0.0
6.45332 0.000103432 0.0
6.02962 7.84071e-05 0.0
6.07313 0.000129082 0.0
6.11593 0.000110376 0.0
5.85577 3.57878e-05 0.0
5.9389 7.95827e-05 0.0
5.90354 7.85949e-05 0.0
5.98364 8.1174e-05 0.0
5.99652 6.78999e-05 0.0
6.15809 0.000117523 0.0
6.2097 9.07674e-05 0.0
5.65439 5.04615e-05 0.0
5.71559 0.000125607 0.0
5.77048 8.85019e-05 0.0
5.72364 0.000153998 0.0
5.77489 0.000172727 0.0
5.81669 0.000120478 0.0
5.6164 0.000112337 0.0
5.56213 0.000110159 0.0
5.45068 0.000121563 0.0
5.50203 9.87377e-05 0.0
5.51224 3.82472e-05 0.0
5.34477 6.05459e-05 0.0
5.41034 4.79291e-05 0.0
6.48942 8.69496e-05 0.0
6.52882 8.42385e-05 0.0
6.66567 0.000135124 0.0
6.59101 0.000118348 0.0
6.62484 9.61923e-05 0.0
6.69781 9.37523e-05 0.0
6.67045 0.000103335 0.0
6.7381 7.89044e-05 0.0
6.88626 0.000127511 0.0
6.85832 7.22545e-05 0.0
6.82973 0.000110209 0.0
6.8005 2.57241e-05 0.0
6.77478 8.01768e-05 0.0
6.56356 7.59365e-05 0.0
7.06539 0.000140042 0.0
7.02167 0.000151479 0.0
7.04576 0.000116331 0.0
6.91871 7.27574e-05 0.0
6.94973 0.000125716 0.0
6.9754 0.000121659 0.0
7.00047 0.000108207 0.0
7.08848 0.000116033 0.0
7.10652 0.000128131 0.0
7.12348 0.000133508 0.0
7.1395 0.000149084 0.0
4.44966 4.94581e-05 0.0
4.32093 -2.15255e-05 0.0
4.38555 3.5274e-05 0.0
4.51298 4.45282e-05 0.0
4.57571 4.29642e-05 0.0
4.63774 5.28139e-05 0.0
4.69906 5.25964e-05 0.0
4.89594 6.66467e-05 0.0
4.95386 5.57788e-05 0.0
4.85045 3.06837e-05 0.0
4.77666 5.02968e-05 0.0
4.79217 7.91991e-05 0.0
4.71508 5.97581e-05 0.0
5.0247 6.71112e-05 0.0
5.09143 5.25832e-06 0.0
5.19607 9.29255e-05 0.0
5.24987 8.42124e-05 0.0
5.15122 7.76156e-05 0.0
5.30298 5.17307e-05 0.0
6.25319 0.000122194 0.0
6.29293 0.000124332 0.0
6.3319 0.000134367 0.0
6.37034 0.000147921 0.0
6.41664 0.00016705 0.0
6.46063 3.57797e-05 0.0
6.42168 0.000136716 0.0
6.0401 0.000126293 0.0
6.08307 5.41837e-05 0.0
6.12528 0.000134464 0.0
5.87035 0.000123857 0.0
5.91329 0.000134955 0.0
5.95031 4.92702e-05 0.0
6.00478 9.10756e-05 0.0
5.92339 1.94395e-05 0.0
6.17587 5.1496e-05 0.0
6.22154 0.000115483 0.0
5.67617 0.000142587 0.0
5.63432 0.000124302 0.0
5.72863 0.000133201 0.0
5.75414 0.000121664 0.0
5.82695 5.74546e-05 0.0
5.57587 9.41289e-05 0.0
5.52652 9.2692e-05 0.0
5.46159 0.000120964 0.0
5.36673 0.000105448 0.0
5.41797 5.64239e-05 0.0
6.53444 0.000119919 0.0
6.49951 0.000125913 0.0
6.63809 9.93375e-05 0.0
6.59766 8.43535e-05 0.0
6.6571 0.000110561 0.0
6.70813 8.81096e-05 0.0
6.74186 9.84763e-05 0.0
6.83328 9.83418e-05 0.0
6.8938 8.24718e-05 0.0
6.86151 0.000112983 0.0
6.77735 0.000119336 0.0
6.80433 7.15431e-05 0.0
6.56877 0.00010577 0.0
7.0739 0.000133143 0.0
7.04871 0.000136942 0.0
7.02489 8.54512e-05 0.0
6.92649 0.000140245 0.0
6.95252 9.8444e-05 0.0
7.00274 0.000141574 0.0
6.97791 0.000124063 0.0
7.09636 9.61221e-05 0.0
7.11184 0.000119368 0.0
7.11565 0.000128483 0.0
7.12928 0.000111973 0.0
7.1455 0.000128589 0.0
7.16084 0.000122813 0.0
4.25544 1.43298e-05 0.0
4.1895 -2.02608e-05 0.0
4.12268 0.000153773 0.0
4.27033 4.40881e-05 0.0
4.4677 1.31335e-05 0.0
4.40271 3.77602e-05 0.0
4.33697 -9.12368e-06 0.0
4.53007 7.90558e-05 0.0
4.59175 4.60159e-05 0.0
4.65286 4.34438e-05 0.0
4.90815 3.37705e-05 0.0
4.9651 4.10251e-05 0.0
4.8584 7.44905e-05 0.0
4.80103 1.9643e-05 0.0
4.72973 7.66926e-05 0.0
5.00336 8.55468e-05 0.0
4.98013 9.50243e-05 0.0
5.10308 0.00010319 0.0
5.20488 8.71459e-05 0.0
5.25804 0.000105164 0.0
5.15663 3.97172e-05 0.0
5.31988 5.63421e-05 0.0
6.26136 8.40358e-05 0.0
6.33917 0.00010003 0.0
6.30058 0.000123236 0.0
6.38489 2.82467e-05 0.0
6.46826 0.000116538 0.0
6.40586 0.000100224 0.0
6.04779 0.000129607 0.0
6.09024 0.000152585 0.0
6.13202 0.000130625 0.0
5.88322 2.1777e-05 0.0
5.96708 0.000122051 0.0
6.01042 1.18141e-05 0.0
5.92717 6.20893e-06 0.0
6.22789 9.45121e-05 0.0
6.18782 0.000113602 0.0
5.63657 0.000156699 0.0
5.58101 0.000142274 0.0
5.72098 0.000202593 0.0
5.68351 7.97853e-05 0.0
5.84012 0.000179705 0.0
5.78073 3.85901e-05 0.0
5.53231 0.000113581 0.0
5.47161 2.27208e-05 0.0
5.37092 0.000102327 0.0
5.39539 9.68737e-05 0.0
6.53796 0.000107013 0.0
6.50343 4.6968e-05 0.0
6.60878 0.000105498 0.0
6.64285 9.76343e-05 0.0
6.68241 8.54875e-05 0.0
6.71352 8.61547e-05 0.0
6.74881 0.000139478 0.0
6.90173 0.000106978 0.0
6.83528 0.000132574 0.0
6.86326 0.000145092 0.0
6.80728 9.36929e-05 0.0
6.57751 8.43645e-05 0.0
7.06432 0.000108658 0.0
7.10288 0.00016229 0.0
7.05414 3.49386e-05 0.0
7.03085 0.000155391 0.0
6.92812 9.8214e-05 0.0
6.95388 0.000117003 0.0
7.00366 0.000124964 0.0
6.97909 9.89834e-05 0.0
7.12199 0.000121069 0.0
7.13362 0.000134509 0.0
7.13987 0.00013124 0.0
7.15067 0.000148509 0.0
7.12448 9.37062e-05 0.0
7.16653 0.000152007 0.0
7.18153 0.00014843 0.0
4.20539 6.15225e-05 0.0
4.13986 6.36928e-05 0.0
4.05534 3.26509e-05 0.0
4.0736 -5.52748e-05 0.0
3.98723 6.26842e-05 0.0
4.28803 5.73969e-05 0.0
4.21456 -7.92205e-05 0.0
4.48016 5.09165e-05 0.0
4.41823 5.23709e-05 0.0
4.35125 -2.81904e-05 0.0
4.54154 3.85079e-05 0.0
4.60223 9.82542e-05 0.0
4.48661 7.60434e-05 0.0
4.61247 8.16467e-05 0.0
4.67262 3.22026e-05 0.0
4.68981 0.00022977 0.0
4.92485 7.03754e-05 0.0
4.80461 8.22384e-05 0.0
4.86121 9.92848e-05 0.0
4.74749 6.97678e-05 0.0
5.1043 -1.42923e-05 0.0
4.95903 0.000107455 0.0
5.03209 2.45407e-05 0.0
5.26184 5.57804e-05 0.0
5.20965 9.68022e-05 0.0
5.15949 1.69285e-05 0.0
5.31673 8.02151e-05 0.0
6.26726 0.0001309 0.0
6.34408 0.000112594 0.0
6.30601 0.000108532 0.0
6.36901 6.21066e-05 0.0
6.47031 0.000116069 0.0
6.42502 5.05866e-05 0.0
6.38901 2.27371e-05 0.0
6.35213 0.000126978 0.0
6.05294 9.63857e-05 0.0
6.10175 1.14844e-05 0.0
6.15198 9.99848e-05 0.0
6.01306 1.39954e-05 0.0
5.92758 -1.96646e-05 0.0
5.97033 6.37038e-05 0.0
6.23182 9.15772e-06 0.0
6.19203 9.8744e-06 0.0
5.54098 8.10703e-05 0.0
5.61096 2.83754e-05 0.0
5.74058 8.80618e-05 0.0
5.68595 5.54118e-05 0.0
5.88174 9.9243e-05 0.0
5.79432 0.000158119 0.0
5.48917 8.53346e-05 0.0
5.38606 0.00011776 0.0
5.48828 0.000195744 0.0
5.43624 0.000114591 0.0
6.54431 7.53915e-05 0.0
6.51035 0.000161383 0.0
6.61008 9.82437e-05 0.0
6.6834 0.000104469 0.0
6.64719 7.44635e-05 0.0
6.71836 0.000175459 0.0
6.74691 5.37737e-05 0.0
6.77731 4.72239e-05 0.0
6.90217 0.000161315 0.0
6.86651 0.000150466 0.0
6.83723 8.5847e-05 0.0
6.80908 0.000208961 0.0
6.58135 0.000133428 0.0
7.10444 0.000101595 0.0
7.07679 0.000142424 0.0
7.05734 0.000131532 0.0
7.01652 6.06685e-05 0.0
6.95326 0.000183174 0.0
6.92709 7.32196e-05 0.0
6.97887 0.000130607 0.0
7.02953 0.000158305 0.0
7.14313 0.000155262 0.0
7.12593 0.000104794 0.0
7.15667 0.000136624 0.0
7.16069 0.000138345 0.0
7.17142 0.00012606 0.0
7.14551 0.000152219 0.0
7.18691 0.000142579 0.0
7.20154 0.00012721 0.0
3.41899 6.77164e-05 0.0
3.345 7.74125e-05 0.0
3.27015 -2.7924e-05 0.0
4.15022 3.0931e-05 0.0
3.4923 4.81534e-05 0.0
4.08522 -3.55134e-05 0.0
4.00434 8.78397e-05 0.0
3.70838 -3.17033e-05 0.0
3.91854 3.85877e-05 0.0
3.77911 8.23157e-05 0.0
3.84913 4.73326e-05 0.0
3.56502 4.68146e-05 0.0
3.6371 0.000119228 0.0
3.93683 4.10484e-05 0.0
4.29488 3.67753e-05 0.0
4.23217 8.02053e-05 0.0
4.42578 0.000169347 0.0
4.36631 -6.21712e-06 0.0
4.54702 2.98925e-06 0.0
4.4864 3.21516e-05 0.0
4.6234 -4.33609e-05 0.0
4.68953 0.000116783 0.0
4.89485 8.71044e-05 0.0
4.80241 0.000148883 0.0
4.92896 -7.42106e-05 0.0
5.10068 0.000104169 0.0
4.99496 -2.1743e-05 0.0
5.21538 8.4099e-05 0.0
5.15688 0.00024013 0.0
5.30747 0.000105183 0.0
6.27072 0.000139083 0.0
6.3149 8.19172e-05 0.0
6.3307 4.6915e-05 0.0
6.49137 2.67112e-05 0.0
6.43523 0.000113599 0.0
6.39339 0.000190233 0.0
6.0609 0.000118217 0.0
6.10768 0.000137244 0.0
6.15428 8.17078e-05 0.0
5.96698 9.62914e-05 0.0
6.01261 7.68575e-05 0.0
6.23328 0.000116513 0.0
6.193 7.21543e-05 0.0
5.63665 5.88195e-05 0.0
5.58337 -3.4838e-05 0.0
5.78939 6.89081e-05 0.0
5.68941 5.18784e-05 0.0
5.87573 0.000156161 0.0
5.33993 -6.34012e-05 0.0
5.52776 -2.69583e-05 0.0
5.43002 2.43006e-05 0.0
6.54222 0.000115352 0.0
6.51536 0.00016764 0.0
6.6197 8.7733e-05 0.0
6.68706 5.51788e-05 0.0
6.65499 0.000143954 0.0
6.71612 0.000190639 0.0
6.777 8.28086e-05 0.0
6.87465 9.68553e-05 0.0
6.81781 0.000139004 0.0
6.84225 8.55603e-05 0.0
6.58525 7.87387e-05 0.0
7.12644 0.000126583 0.0
7.08331 0.000110434 0.0
7.06068 0.000120463 0.0
7.00342 6.04233e-05 0.0
6.9243 0.00013739 0.0
6.95489 3.91251e-05 0.0
7.03658 9.69199e-05 0.0
7.16375 0.000129473 0.0
7.14676 0.000210178 0.0
7.17713 0.000180665 0.0
7.18086 0.000139483 0.0
7.19269 0.000138211 0.0
7.16924 0.000168328 0.0
7.20718 0.000167086 0.0
7.22089 0.000132497 0.0
7.14957 7.10604e-05 0.0
3.43836 4.4004e-05 0.0
3.36588 4.50388e-05 0.0
3.29261 0.00016104 0.0
3.19483 5.26501e-05 0.0
4.12106 0.000100237 0.0
3.52566 3.19427e-05 0.0
4.02448 7.67208e-05 0.0
3.94776 2.67225e-05 0.0
3.7251 6.28967e-05 0.0
3.86869 9.62802e-05 0.0
3.79996 1.63278e-05 0.0
3.66458 -5.29727e-05 0.0
3.59549 1.02669e-05 0.0
3.88094 2.00972e-05 0.0
4.23321 1.73743e-05 0.0
4.15956 -7.41921e-05 0.0
4.36114 9.02565e-05 0.0
4.42546 6.15078e-06 0.0
4.5509 6.6269e-05 0.0
4.62657 5.26629e-05 0.0
4.74172 2.70255e-05 0.0
4.86258 0.000117705 0.0
4.93422 0.000134138 0.0
5.03984 4.75118e-05 0.0
5.21589 -1.57513e-05 0.0
5.14426 1.77691e-05 0.0
5.27438 3.10212e-05 0.0
6.27666 5.73759e-05 0.0
6.34716 1.09722e-05 0.0
6.4711 0.000113531 0.0
6.39787 0.000107393 0.0
5.96163 0.00010555 0.0
6.06563 7.83262e-05 0.0
6.11386 9.25211e-05 0.0
6.15012 3.35637e-05 0.0
6.0115 0.00014712 0.0
6.23567 0.000106328 0.0
6.19192 0.000228981 0.0
5.62061 4.53615e-05 0.0
5.69284 -4.64691e-05 0.0
5.78054 2.53892e-05 0.0
5.93446 0.00024576 0.0
5.86641 9.23882e-05 0.0
5.51407 7.60388e-05 0.0
5.37373 2.89602e-05 0.0
5.4446 1.27323e-05 0.0
6.54023 4.71911e-05 0.0
6.4985 7.19376e-05 0.0
6.62019 0.000147198 0.0
6.68189 6.96351e-05 0.0
6.74276 9.546e-05 0.0
6.81416 0.000149817 0.0
6.8722 7.56705e-05 0.0
6.5807 0.000220973 0.0
6.89413 0.000185509 0.0
7.13768 0.00012611 0.0
7.10453 0.000157492 0.0
7.08132 4.44702e-05 0.0
6.9208 0.000159668 0.0
7.01086 0.000128848 0.0
6.97554 0.00010655 0.0
7.05804 5.79486e-05 0.0
7.1837 0.000140835 0.0
7.17873 0.000118064 0.0
7.18879 0.00010368 0.0
7.19695 0.000151099 0.0
7.20036 0.00020903 0.0
7.21209 0.000116968 0.0
7.19568 0.000100701 0.0
7.2262 0.000161528 0.0
7.23956 0.00013661 0.0
7.16765 9.93516e-05 0.0
7.18858 0.000105742 0.0
3.11882 7.71835e-05 0.0
3.04214 -1.58285e-05 0.0
2.88665 8.00829e-05 0.0
2.96472 0.000131916 0.0
3.44849 5.92302e-05 0.0
3.3777 0.000165644 0.0
3.30607 6.17984e-05 0.0
3.13768 3.00819e-05 0.0
3.2181 7.38937e-05 0.0
4.08473 4.65412e-05 0.0
3.56028 9.12976e-05 0.0
3.95784 2.16296e-05 0.0
3.88492 0.000124303 0.0
3.94665 -9.41027e-05 0.0
3.74542 4.65328e-05 0.0
3.81346 5.20483e-05 0.0
3.68497 -2.33633e-05 0.0
3.81892 7.23326e-05 0.0
3.52091 -0.000135913 0.0
4.22969 -4.86067e-05 0.0
4.1037 -2.38818e-05 0.0
4.42353 -2.31602e-05 0.0
4.34778 8.10026e-05 0.0
4.49736 6.98802e-05 0.0
4.558 -5.69383e-05 0.0
4.66949 0.000184305 0.0
4.26808 3.26747e-05 0.0
4.72377 -0.000106823 0.0
4.8305 6.02057e-05 0.0
4.92162 9.1957e-05 0.0
5.02548 0.000145355 0.0
5.1006 0.000175914 0.0
5.17492 9.58196e-05 0.0
5.35647 2.44629e-05 0.0
5.26104 0.000141903 0.0
5.55892 4.1915e-05 0.0
6.30396 0.000105311 0.0
6.35818 0.000194718 0.0
6.43106 6.62522e-05 0.0
6.01577 0.000286657 0.0
6.1435 0.000129404 0.0
6.02461 -7.7045e-05 0.0
6.07079 7.61746e-05 0.0
6.27923 5.54321e-05 0.0
6.22122 5.44149e-05 0.0
5.63652 0.000162681 0.0
5.72427 -2.07152e-05 0.0
6.00335 1.25726e-05 0.0
5.80941 0.00013617 0.0
5.92305 0.000133853 0.0
5.49258 0.000106291 0.0
5.42525 3.33271e-05 0.0
6.49969 1.15345e-05 0.0
6.54209 0.00013067 0.0
6.61432 4.21012e-05 0.0
6.66007 9.52815e-05 0.0
6.70532 5.69113e-05 0.0
6.75259 3.44512e-05 0.0
6.80843 0.000115996 0.0
6.862 3.46387e-05 0.0
6.57534 9.35102e-05 0.0
6.88876 4.96849e-05 0.0
7.1651 0.000139208 0.0
7.1254 0.000128772 0.0
7.10097 0.000218032 0.0
6.95916 4.99405e-05 0.0
6.95396 -1.3164e-05 0.0
7.00697 0.000177712 0.0
7.07482 0.000181927 0.0
7.03102 0.000149627 0.0
7.19839 0.000144772 0.0
7.20759 0.00018481 0.0
7.21612 0.000137812 0.0
7.22315 0.000149887 0.0
7.23084 0.000164004 0.0
7.22502 0.000140592 0.0
7.2446 0.000135903 0.0
7.2576 0.000157509 0.0
7.1942 0.000256816 0.0
7.21315 0.000110038 0.0
2.80784 0.000152022 0.0
2.72844 0.000236692 0.0
2.64823 -5.13829e-05 0.0
3.05879 0.000132209 0.0
2.98329 0.000135118 0.0
2.8302 0.000142164 0.0
2.90704 7.21316e-05 0.0
3.37901 8.54084e-05 0.0
3.23898 0.000109897 0.0
3.09755 1.00625e-05 0.0
3.14075 0.000109487 0.0
3.92524 0.000107256 0.0
4.00889 -3.07809e-05 0.0
3.4355 9.64031e-05 0.0
3.60295 4.94215e-05 0.0
3.6842 1.55668e-05 0.0
3.82043 -1.55721e-05 0.0
3.7522 1.22345e-05 0.0
3.54333 0.000170816 0.0
3.80174 -0.000101751 0.0
4.18064 -6.18597e-05 0.0
4.09178 3.09427e-05 0.0
4.34798 2.87514e-07 0.0
4.42592 2.18808e-05 0.0
4.53894 7.97233e-05 0.0
4.64571 3.47119e-05 0.0
4.34677 -4.92366e-05 0.0
4.26553 0.000221965 0.0
4.79844 -9.31446e-05 0.0
4.95371 0.000159194 0.0
5.05129 -0.000135746 0.0
5.14513 1.97733e-05 0.0
5.37664 0.000123854 0.0
5.24042 6.02651e-05 0.0
5.57623 -5.70231e-05 0.0
6.35159 0.000125777 0.0
6.42223 3.01045e-05 0.0
6.45638 0.000210116 0.0
6.41105 -1.41609e-06 0.0
6.13368 2.19684e-05 0.0
6.09494 0.000141832 0.0
6.27043 -7.14571e-06 0.0
6.20866 -4.34447e-05 0.0
6.04219 0.000104711 0.0
5.6641 -6.66655e-05 0.0
5.7497 0.000256898 0.0
5.94737 0.000117788 0.0
5.79809 1.50981e-05 0.0
5.8667 -7.13266e-06 0.0
5.51139 -0.000188929 0.0
5.44531 0.000162135 0.0
6.50074 0.00013227 0.0
6.53344 6.61497e-05 0.0
6.63706 0.000103318 0.0
6.74516 9.90747e-05 0.0
6.69664 9.29887e-06 0.0
6.8797 6.24233e-05 0.0
6.78691 7.06102e-05 0.0
6.82771 0.000126805 0.0
6.59586 1.58192e-05 0.0
6.92261 7.8151e-05 0.0
7.19251 0.000234315 0.0
7.15151 0.00024439 0.0
7.17227 0.000128799 0.0
7.11656 6.27966e-05 0.0
6.97065 0.000169924 0.0
7.00126 0.000102296 0.0
7.08935 0.000157511 0.0
7.0246 8.80227e-05 0.0
7.05763 0.000149621 0.0
7.2261 0.000164927 0.0
7.23541 0.000147722 0.0
7.23878 0.000103382 0.0
7.24128 0.000194755 0.0
7.2429 0.000240189 0.0
7.24947 0.000143734 0.0
7.2478 0.000134171 0.0
7.26259 0.00015159 0.0
7.27495 0.000137508 0.0
7.2382 0.000165629 0.0
7.23216 9.85824e-05 0.0
2.74841 0.00011129 0.0
2.67061 0.000279553 0.0
2.56764 -0.000191605 0.0
2.40423 -0.00014251 0.0
2.48637 0.000252047 0.0
2.98967 3.53047e-05 0.0
2.91561 9.26583e-05 0.0
2.84079 5.90893e-05 0.0
3.30312 -0.000132071 0.0
3.16289 -3.34866e-06 0.0
3.05251 -2.36843e-05 0.0
3.33964 -1.78605e-05 0.0
3.8932 -3.4854e-05 0.0
4.00822 4.9889e-05 0.0
3.46049 1.52899e-05 0.0
3.64136 1.50228e-05 0.0
3.73802 7.2449e-05 0.0
3.5886 -0.000122851 0.0
3.77177 9.89456e-05 0.0
4.1755 -0.000190737 0.0
4.45703 0.000140532 0.0
4.56022 -2.84536e-05 0.0
4.66509 5.95165e-05 0.0
4.36799 6.95838e-05 0.0
4.26247 -2.14972e-05 0.0
4.7736 0.000203129 0.0
4.872 -7.71939e-06 0.0
5.07272 -3.21837e-05 0.0
4.97104 2.3641e-05 0.0
5.34484 3.46539e-05 0.0
5.16604 0.000144787 0.0
5.25922 -9.15236e-06 0.0
5.59964 9.38053e-05 0.0
6.30723 0.000128066 0.0
6.35969 2.53189e-05 0.0
6.42351 -4.79987e-05 0.0
6.45635 0.000196197 0.0
6.11868 -3.62343e-05 0.0
6.22232 0.000226504 0.0
6.02398 -0.000115871 0.0
6.09982 7.99441e-05 0.0
5.72367 8.69881e-05 0.0
5.9245 4.19802e-05 0.0
5.84752 -0.000137675 0.0
5.57323 0.000102167 0.0
5.45581 0.000116581 0.0
5.3684 -0.000174403 0.0
6.52087 0.000103374 0.0
6.62574 9.16528e-05 0.0
6.76351 0.000110222 0.0
6.70742 8.10965e-05 0.0
6.88904 9.97009e-05 0.0
6.84315 0.000142278 0.0
6.79042 7.27391e-05 0.0
6.61149 4.45704e-05 0.0
6.9383 5.35529e-06 0.0
7.22977 0.00011294 0.0
7.20891 0.000135955 0.0
7.18659 0.000148918 0.0
7.148 0.000200416 0.0
7.12327 0.000114244 0.0
6.99431 7.61549e-05 0.0
7.07592 0.000125496 0.0
7.03888 7.97588e-07 0.0
6.98452 0.000104029 0.0
7.24855 0.000133097 0.0
7.25321 0.000190173 0.0
7.25632 0.000178119 0.0
7.26012 0.000106232 0.0
7.26695 0.000149629 0.0
7.26745 0.0001699 0.0
7.27964 0.000149487 0.0
7.29164 0.000166718 0.0
7.25927 0.000180964 0.0
7.25054 0.000101807 0.0
7.26552 0.000138498 0.0
7.26298 0.000253759 0.0
2.15443 0.000382135 0.0
2.2384 8.1038e-05 0.0
2.32186 0.000316579 0.0
2.69075 -0.000190901 0.0
2.50273 -3.27687e-05 0.0
2.592 9.65025e-05 0.0
2.42301 -5.85189e-05 0.0
2.91265 1.22205e-05 0.0
2.83759 9.19087e-05 0.0
1.9842 -6.22762e-05 0.0
2.06946 2.72404e-05 0.0
1.89785 0.000357338 0.0
3.21186 5.21511e-05 0.0
3.11083 9.19782e-05 0.0
3.00903 9.43554e-05 0.0
3.2935 0.00013042 0.0
3.43144 -0.000103694 0.0
3.85891 0.00015051 0.0
3.97079 8.02546e-05 0.0
3.55584 0.000156433 0.0
3.65631 8.91418e-05 0.0
3.72881 -5.04182e-06 0.0
4.1315 0.000126192 0.0
4.21724 0.000124005 0.0
4.46779 0.000131753 0.0
4.63895 0.000146082 0.0
4.32418 -1.3521e-05 0.0
4.41802 6.63988e-05 0.0
4.78574 -2.07184e-05 0.0
4.91127 0.000149404 0.0
4.93274 1.75269e-05 0.0
5.09124 0.000156132 0.0
5.26209 0.000106927 0.0
5.17888 2.42395e-05 0.0