# vtk DataFile Version 3.0
Mesh NS-CD Problem
ASCII
DATASET UNSTRUCTURED_GRID
POINTS 10839 float
-2 0.3 0.0
-2 0.4 0.0
-2 0.35 0.0
-2 0.45 0.0
-2 0.5 0.0
-2 0.55 0.0
-2 0 0.0
-2 0.05 0.0
-2 0.85 0.0
-2 0.9 0.0
-2 0.1 0.0
-2 0.15 0.0
-2 0.25 0.0
-2 0.2 0.0
-1.96653 0.266667 0.0
-1.96524 0.415385 0.0
-1.96485 0.315 0.0
-1.96348 0.363636 0.0
-1.96414 0.464286 0.0
-2 0.6 0.0
-1.96538 0.584615 0.0
-1.96538 0.538462 0.0
-1.94979 0 0.0
-1.96653 0.0666666 0.0
-1.93306 0.0333333 0.0
-2 0.8 0.0
-2 0.75 0.0
-2 0.7 0.0
-2 0.65 0.0
-1.96249 0.7375 0.0
-1.96666 0.833333 0.0
-2 1 0.0
-2 0.95 0.0
-1.96249 0.8875 0.0
-1.96666 0.933333 0.0
-1.96234 0.1125 0.0
-1.96653 0.166667 0.0
-1.93724 0.225 0.0
-1.92971 0.28 0.0
-1.93048 0.380769 0.0
-1.93048 0.423077 0.0
-1.89958 0.3375 0.0
-1.9292 0.484203 0.0
-1.92117 0.530907 0.0
-1.96363 0.636364 0.0
-1.93076 0.576923 0.0
-1.89958 0 0.0
-1.88703 0.0375 0.0
-1.90963 0.08 0.0
-1.86611 0.0666666 0.0
-1.93749 0.775 0.0
-1.93635 0.672727 0.0
-1.92999 0.72 0.0
-1.93332 0.866667 0.0
-1.92856 0.821429 0.0
-1.94999 1 0.0
-1.92499 0.9625 0.0
-1.92499 0.925 0.0
-1.89998 0.9 0.0
-1.89958 0.125 0.0
-1.92827 0.178571 0.0
-1.89958 0.233333 0.0
-1.89045 0.290909 0.0
-1.86096 0.311538 0.0
-1.89241 0.392857 0.0
-1.89334 0.448489 0.0
-1.85655 0.357143 0.0
-1.89614 0.653846 0.0
-1.89427 0.504121 0.0
-1.8952 0.559753 0.0
-1.89614 0.615385 0.0
-1.84937 0 0.0
-1.83264 0.0333333 0.0
-1.85655 0.107143 0.0
-1.81172 0.075 0.0
-1.89998 0.766667 0.0
-1.89089 0.709091 0.0
-1.87498 0.85 0.0
-1.85998 0.79 0.0
-1.88748 0.8125 0.0
-1.89998 1 0.0
-1.88748 0.9625 0.0
-1.86664 0.933333 0.0
-1.85712 0.892857 0.0
-1.87448 0.15 0.0
-1.86611 0.194444 0.0
-1.83264 0.133333 0.0
-1.83264 0.2625 0.0
-1.82068 0.321429 0.0
-1.85664 0.404762 0.0
-1.85674 0.452381 0.0
-1.85683 0.5 0.0
-1.81184 0.375 0.0
-1.85712 0.642857 0.0
-1.85693 0.547619 0.0
-1.85702 0.595238 0.0
-1.79917 0 0.0
-1.78482 0.0357143 0.0
-1.79917 0.116667 0.0
-1.76569 0.0666666 0.0
-1.85452 0.745455 0.0
-1.82689 0.692308 0.0
-1.81815 0.781818 0.0
-1.82497 0.825 0.0
-1.84997 1 0.0
-1.8333 0.958333 0.0
-1.81247 0.8875 0.0
-1.81247 0.925 0.0
-1.81742 0.218182 0.0
-1.82427 0.175 0.0
-1.77634 0.145455 0.0
-1.79144 0.242308 0.0
-1.78482 0.285714 0.0
-1.77469 0.332653 0.0
-1.81215 0.529762 0.0
-1.81194 0.422619 0.0
-1.81203 0.470238 0.0
-1.76714 0.392857 0.0
-1.81234 0.625 0.0
-1.79732 0.571429 0.0
-1.74896 0 0.0
-1.73222 0.0333333 0.0
-1.75398 0.105 0.0
-1.71883 0.07 0.0
-1.79227 0.730769 0.0
-1.78007 0.679121 0.0
-1.75765 0.769231 0.0
-1.78178 0.818182 0.0
-1.78996 0.86 0.0
-1.79996 1 0.0
-1.78568 0.964286 0.0
-1.76663 0.922222 0.0
-1.76569 0.1875 0.0
-1.73222 0.15 0.0
-1.74896 0.25 0.0
-1.73714 0.304762 0.0
-1.76743 0.537202 0.0
-1.72869 0.343878 0.0
-1.76732 0.485119 0.0
-1.76723 0.440476 0.0
-1.72243 0.410714 0.0
-1.76757 0.607143 0.0
-1.69875 0 0.0
-1.68369 0.035 0.0
-1.69875 0.1125 0.0
-1.66528 0.075 0.0
-1.74341 0.708974 0.0
-1.73324 0.665934 0.0
-1.70441 0.74478 0.0
-1.71423 0.785714 0.0
-1.72303 0.826923 0.0
-1.74541 0.854545 0.0
-1.74541 0.890909 0.0
-1.74996 1 0.0
-1.73745 0.9625 0.0
-1.71359 0.927273 0.0
-1.68716 0.153846 0.0
-1.7131 0.214286 0.0
-1.70725 0.275 0.0
-1.69712 0.321939 0.0
-1.72279 0.589286 0.0
-1.72261 0.5 0.0
-1.7227 0.544643 0.0
-1.6827 0.355102 0.0
-1.67773 0.428571 0.0
-1.70763 0.464286 0.0
-1.70369 0.62449 0.0
-1.64854 0 0.0
-1.63181 0.0375 0.0
-1.64137 0.142857 0.0
-1.61764 0.0769231 0.0
-1.69458 0.703846 0.0
-1.67471 0.657437 0.0
-1.66143 0.727637 0.0
-1.67125 0.768571 0.0
-1.67851 0.821429 0.0
-1.68841 0.861538 0.0
-1.70904 0.890909 0.0
-1.69995 1 0.0
-1.68176 0.963636 0.0
-1.67267 0.927273 0.0
-1.65427 0.187143 0.0
-1.66718 0.231429 0.0
-1.66554 0.3 0.0
-1.67802 0.571429 0.0
-1.67792 0.523809 0.0
-1.6367 0.366327 0.0
-1.63682 0.423469 0.0
-1.62568 0.502976 0.0
-1.6629 0.470238 0.0
-1.65254 0.618367 0.0
-1.6059 0.307143 0.0
-1.59833 0 0.0
-1.58288 0.0384615 0.0
-1.60563 0.169643 0.0
-1.58179 0.112271 0.0
-1.56964 0.0714286 0.0
-1.64574 0.690385 0.0
-1.62827 0.751429 0.0
-1.63371 0.791071 0.0
-1.64279 0.857143 0.0
-1.65378 0.896154 0.0
-1.64994 1 0.0
-1.6363 0.963636 0.0
-1.61916 0.930769 0.0
-1.61345 0.209107 0.0
-1.62126 0.248571 0.0
-1.56989 0.196429 0.0
-1.63324 0.553571 0.0
-1.58846 0.535714 0.0
-1.59408 0.361905 0.0
-1.59161 0.402211 0.0
-1.58832 0.464286 0.0
-1.61504 0.598581 0.0
-1.59683 0.64359 0.0
-1.57899 0.274107 0.0
-1.56176 0.322381 0.0
-1.54812 0 0.0
-1.53378 0.0357143 0.0
-1.54593 0.147619 0.0
-1.53385 0.0732143 0.0
-1.53393 0.110714 0.0
-1.58522 0.704286 0.0
-1.58709 0.745 0.0
-1.58896 0.785714 0.0
-1.60695 0.830357 0.0
-1.60707 0.892857 0.0
-1.59993 1 0.0
-1.58454 0.965385 0.0
-1.57135 0.928571 0.0
-1.55209 0.241071 0.0
-1.5291 0.198214 0.0
-1.56936 0.570918 0.0
-1.54369 0.517857 0.0
-1.5464 0.380952 0.0
-1.54564 0.427721 0.0
-1.54488 0.47449 0.0
-1.55026 0.606122 0.0
-1.54222 0.677143 0.0
-1.52943 0.282857 0.0
-1.52143 0.33619 0.0
-1.49792 0 0.0
-1.49802 0.05 0.0
-1.49822 0.15 0.0
-1.49312 0.1 0.0
-1.5423 0.717143 0.0
-1.54419 0.767857 0.0
-1.54727 0.819048 0.0
-1.57122 0.861905 0.0
-1.53553 0.914286 0.0
-1.54992 1 0.0
-1.53563 0.964286 0.0
-1.49842 0.25 0.0
-1.48831 0.2 0.0
-1.5214 0.558929 0.0
-1.49891 0.5 0.0
-1.49871 0.4 0.0
-1.47631 0.45 0.0
-1.49911 0.6 0.0
-1.49921 0.65 0.0
-1.49931 0.7 0.0
-1.48111 0.35 0.0
-1.48351 0.3 0.0
-1.44771 0 0.0
-1.44782 0.05 0.0
-1.44804 0.15 0.0
-1.44793 0.1 0.0
-1.49941 0.75 0.0
-1.49951 0.8 0.0
-1.49981 0.95 0.0
-1.49961 0.85 0.0
-1.49971 0.9 0.0
-1.49991 1 0.0
-1.44826 0.25 0.0
-1.43815 0.2 0.0
-1.47151 0.55 0.0
-1.44881 0.5 0.0
-1.44859 0.4 0.0
-1.42619 0.45 0.0
-1.44913 0.65 0.0
-1.44902 0.6 0.0
-1.44935 0.75 0.0
-1.44924 0.7 0.0
-1.43972 0.35 0.0
-1.43336 0.3 0.0
-1.3975 0 0.0
-1.39762 0.05 0.0
-1.39786 0.15 0.0
-1.39274 0.1 0.0
-1.44957 0.85 0.0
-1.44946 0.8 0.0
-1.4523 0.95 0.0
-1.44968 0.9 0.0
-1.4499 1 0.0
-1.3981 0.25 0.0
-1.38798 0.2 0.0
-1.42141 0.55 0.0
-1.3987 0.5 0.0
-1.39834 0.35 0.0
-1.37845 0.4 0.0
-1.37607 0.45 0.0
-1.40784 0.65 0.0
-1.39894 0.6 0.0
-1.41185 0.75 0.0
-1.39918 0.7 0.0
-1.38322 0.3 0.0
-1.34729 0 0.0
-1.34492 0.05 0.0
-1.34018 0.15 0.0
-1.34255 0.1 0.0
-1.40707 0.85 0.0
-1.39941 0.8 0.0
-1.39977 0.95 0.0
-1.39965 0.9 0.0
-1.39989 1 0.0
-1.33781 0.2 0.0
-1.33544 0.25 0.0
-1.37131 0.55 0.0
-1.34859 0.5 0.0
-1.33833 0.4 0.0
-1.3307 0.35 0.0
-1.32595 0.45 0.0
-1.34885 0.6 0.0
-1.36655 0.65 0.0
-1.36179 0.75 0.0
-1.34911 0.7 0.0
-1.33307 0.3 0.0
-1.29708 0 0.0
-1.29722 0.05 0.0
-1.2975 0.15 0.0
-1.29236 0.1 0.0
-1.35703 0.85 0.0
-1.34937 0.8 0.0
-1.34988 1 0.0
-1.34962 0.9 0.0
-1.35226 0.95 0.0
-1.28528 0.25 0.0
-1.28764 0.2 0.0
-1.28931 0.35 0.0
-1.32121 0.55 0.0
-1.29848 0.5 0.0
-1.28709 0.45 0.0
-1.2982 0.4 0.0
-1.29876 0.6 0.0
-1.31647 0.65 0.0
-1.29918 0.75 0.0
-1.29904 0.7 0.0
-1.28292 0.3 0.0
-1.24687 0 0.0
-1.24702 0.05 0.0
-1.24717 0.1 0.0
-1.24732 0.15 0.0
-1.29946 0.85 0.0
-1.29932 0.8 0.0
-1.29987 1 0.0
-1.29974 0.95 0.0
-1.30462 0.9 0.0
-1.24762 0.25 0.0
-1.23747 0.2 0.0
-1.24792 0.35 0.0
-1.22807 0.4 0.0
-1.27111 0.55 0.0
-1.24837 0.5 0.0
-1.24822 0.45 0.0
-1.24867 0.6 0.0
-1.26639 0.65 0.0
-1.26167 0.75 0.0
-1.24897 0.7 0.0
-1.23277 0.3 0.0
-1.19667 0 0.0
-1.19683 0.05 0.0
-1.18964 0.15 0.0
-1.19198 0.1 0.0
-1.25695 0.85 0.0
-1.24927 0.8 0.0
-1.25223 0.95 0.0
-1.24987 1 0.0
-1.24957 0.9 0.0
-1.1873 0.2 0.0
-1.18496 0.25 0.0
-1.18028 0.35 0.0
-1.17794 0.4 0.0
-1.1981 0.45 0.0
-1.19842 0.55 0.0
-1.19826 0.5 0.0
-1.19858 0.6 0.0
-1.19874 0.65 0.0
-1.19906 0.75 0.0
-1.1989 0.7 0.0
-1.18262 0.3 0.0
-1.14646 0 0.0
-1.14663 0.05 0.0
-1.1418 0.1 0.0
-1.13713 0.2 0.0
-1.14697 0.15 0.0
-1.20691 0.85 0.0
-1.20926 0.8 0.0
-1.20221 0.95 0.0
-1.19986 1 0.0
-1.20456 0.9 0.0
-1.13997 0.3 0.0
-1.14731 0.25 0.0
-1.13781 0.4 0.0
-1.13014 0.35 0.0
-1.12548 0.45 0.0
-1.14815 0.5 0.0
-1.15962 0.55 0.0
-1.14849 0.6 0.0
-1.15745 0.65 0.0
-1.16155 0.75 0.0
-1.14917 0.8 0.0
-1.14883 0.7 0.0
-1.09625 0 0.0
-1.09661 0.1 0.0
-1.09393 0.05 0.0
-1.09697 0.2 0.0
-1.08929 0.15 0.0
-1.15687 0.85 0.0
-1.14985 1 0.0
-1.15219 0.95 0.0
-1.14951 0.9 0.0
-1.09733 0.3 0.0
-1.08465 0.25 0.0
-1.09769 0.4 0.0
-1.08 0.35 0.0
-1.08661 0.45 0.0
-1.09804 0.5 0.0
-1.12082 0.55 0.0
-1.10916 0.8 0.0
-1.10629 0.7 0.0
-1.0984 0.6 0.0
-1.11616 0.65 0.0
-1.11149 0.75 0.0
-1.04604 0 0.0
-1.04623 0.05 0.0
-1.04642 0.1 0.0
-1.0468 0.2 0.0
-1.03911 0.15 0.0
-1.09948 0.9 0.0
-1.0993 0.85 0.0
-1.09984 1 0.0
-1.09966 0.95 0.0
-1.04718 0.3 0.0
-1.03449 0.25 0.0
-1.04756 0.4 0.0
-1.02986 0.35 0.0
-1.04775 0.45 0.0
-1.04794 0.5 0.0
-1.04813 0.55 0.0
-1.05911 0.8 0.0
-1.04831 0.6 0.0
-1.06376 0.7 0.0
-1.0485 0.65 0.0
-1.04888 0.75 0.0
-0.995833 0 0.0
-0.991231 0.1 0.0
-0.996033 0.05 0.0
-0.986629 0.2 0.0
-0.98893 0.15 0.0
-1.05447 0.9 0.0
-1.04926 0.85 0.0
-1.04983 1 0.0
-1.04964 0.95 0.0
-0.984328 0.25 0.0
-0.99703 0.3 0.0
-0.997429 0.4 0.0
-0.997628 0.45 0.0
-0.979726 0.35 0.0
-0.997827 0.5 0.0
-0.998027 0.55 0.0
-0.998226 0.6 0.0
-0.961416 0.475 0.0
-1.00907 0.8 0.0
-0.998426 0.65 0.0
-0.998625 0.7 0.0
-1.01138 0.75 0.0
-0.945625 0 0.0
-0.946044 0.1 0.0
-0.943334 0.05 0.0
-0.946463 0.2 0.0
-0.938752 0.15 0.0
-1.00444 0.9 0.0
-1.00675 0.85 0.0
-0.999821 1 0.0
-1.00213 0.95 0.0
-0.93417 0.25 0.0
-0.946881 0.3 0.0
-0.9473 0.4 0.0
-0.929588 0.35 0.0
-0.925005 0.45 0.0
-0.960371 0.525 0.0
-0.959325 0.575 0.0
-0.958279 0.625 0.0
-0.922714 0.5 0.0
-0.959017 0.8 0.0
-0.957233 0.675 0.0
-0.952999 0.7125 0.0
-0.948766 0.75 0.0
-0.895417 0 0.0
-0.895855 0.1 0.0
-0.893136 0.05 0.0
-0.896294 0.2 0.0
-0.888573 0.15 0.0
-0.949184 0.85 0.0
-0.954415 0.9 0.0
-0.949812 1 0.0
-0.949603 0.95 0.0
-0.884011 0.25 0.0
-0.896733 0.3 0.0
-0.874887 0.45 0.0
-0.879449 0.35 0.0
-0.897171 0.4 0.0
-0.920423 0.55 0.0
-0.918132 0.6 0.0
-0.915841 0.65 0.0
-0.872606 0.5 0.0
-0.908968 0.8 0.0
-0.91355 0.7 0.0
-0.898707 0.75 0.0
-0.845208 0 0.0
-0.845438 0.05 0.0
-0.845667 0.1 0.0
-0.845896 0.15 0.0
-0.833853 0.25 0.0
-0.846126 0.2 0.0
-0.899146 0.85 0.0
-0.904386 0.9 0.0
-0.899584 0.95 0.0
-0.899804 1 0.0
-0.838062 0.35 0.0
[...]
POINT_DATA 10839
VECTORS Velocity float
0.21 -8.73368e-39 0.0
0.24 -1.01673e-38 0.0
0.2275 -9.54514e-39 0.0
0.2475 -1.07451e-38 0.0
0.25 -1.08599e-38 0.0
0.2475 -1.0765e-38 0.0
-3.43645e-35 -4.29107e-35 0.0
0.0475 -9.60671e-40 0.0
0.1275 -4.21095e-39 0.0
0.09 -2.64305e-39 0.0
0.09 -2.65454e-39 0.0
0.1275 -4.22187e-39 0.0
0.1875 -6.91652e-39 0.0
0.16 -6.65546e-39 0.0
0.195557 -1.63896e-05 0.0
0.242841 -2.23582e-05 0.0
0.215776 -1.95079e-05 0.0
0.231406 -2.19914e-05 0.0
0.248725 -2.38049e-05 0.0
0.24 -1.03503e-38 0.0
0.24284 -2.23072e-05 0.0
0.248521 -2.2925e-05 0.0
1.67375e-35 -8.41405e-35 0.0
0.0622234 -2.86159e-06 0.0
0.0322255 -1.89034e-06 0.0
0.16 -6.54155e-39 0.0
0.1875 -6.99472e-39 0.0
0.21 -9.0696e-39 0.0
0.2275 -8.97351e-39 0.0
0.193592 -1.83945e-05 0.0
0.138888 -1.02165e-05 0.0
-3.50984e-35 4.3441e-35 0.0
0.0475 -9.7901e-40 0.0
0.0998422 -7.09911e-06 0.0
0.0622211 -2.89368e-06 0.0
0.0998454 -7.41812e-06 0.0
0.13889 -1.0308e-05 0.0
0.174378 -2.58219e-05 0.0
0.201604 -3.53719e-05 0.0
0.235786 -4.31954e-05 0.0
0.244084 -4.52002e-05 0.0
0.223599 -5.78908e-05 0.0
0.249751 -4.72253e-05 0.0
0.249044 -5.26209e-05 0.0
0.231404 -2.23476e-05 0.0
0.244081 -4.46634e-05 0.0
1.67407e-35 -8.24595e-35 0.0
0.0361035 -3.65103e-06 0.0
0.0736086 -1.02071e-05 0.0
0.0622405 -1.11769e-05 0.0
0.174372 -2.54401e-05 0.0
0.220163 -3.5361e-05 0.0
0.201596 -3.54219e-05 0.0
0.115551 -1.52535e-05 0.0
0.146678 -2.36329e-05 0.0
1.66683e-35 8.52148e-35 0.0
0.0360894 -2.4624e-06 0.0
0.0693689 -7.98454e-06 0.0
0.0899887 -1.58357e-05 0.0
0.109386 -2.14226e-05 0.0
0.146689 -2.31775e-05 0.0
0.178898 -4.32886e-05 0.0
0.206289 -5.66142e-05 0.0
0.214495 -7.62973e-05 0.0
0.238525 -6.77033e-05 0.0
0.247349 -7.05069e-05 0.0
0.229602 -8.61666e-05 0.0
0.226326 -6.08247e-05 0.0
0.249983 -7.08568e-05 0.0
0.246427 -6.89325e-05 0.0
0.236682 -6.48947e-05 0.0
1.67466e-35 -8.07738e-35 0.0
0.0322415 -4.12416e-06 0.0
0.095686 -2.43154e-05 0.0
0.0694119 -1.83126e-05 0.0
0.17888 -4.2626e-05 0.0
0.206273 -5.70395e-05 0.0
0.127484 -3.28415e-05 0.0
0.165882 -5.39276e-05 0.0
0.152331 -3.86168e-05 0.0
1.6665e-35 8.3548e-35 0.0
0.0360841 -3.53646e-06 0.0
0.0622042 -1.10599e-05 0.0
0.0956406 -2.47772e-05 0.0
0.127517 -3.31596e-05 0.0
0.156653 -4.81901e-05 0.0
0.115586 -3.8057e-05 0.0
0.193616 -7.95201e-05 0.0
0.218132 -0.00010067 0.0
0.240937 -9.18241e-05 0.0
0.247736 -9.52384e-05 0.0
0.25 -9.628e-05 0.0
0.234391 -0.000116577 0.0
0.229581 -8.49718e-05 0.0
0.247729 -9.50271e-05 0.0
0.240923 -9.16602e-05 0.0
1.67542e-35 -7.90836e-35 0.0
0.0344717 -5.70942e-06 0.0
0.1031 -3.7382e-05 0.0
0.0622772 -1.85466e-05 0.0
0.189735 -6.75696e-05 0.0
0.212998 -9.44253e-05 0.0
0.170548 -7.31546e-05 0.0
0.144344 -5.42692e-05 0.0
1.66593e-35 8.18857e-35 0.0
0.0399085 -6.08464e-06 0.0
0.0998046 -3.39829e-05 0.0
0.0693384 -1.80154e-05 0.0
0.17061 -7.32416e-05 0.0
0.144406 -5.54454e-05 0.0
0.124352 -5.62059e-05 0.0
0.183632 -9.26223e-05 0.0
0.204116 -0.000110942 0.0
0.222025 -0.000130679 0.0
0.24911 -0.000126431 0.0
0.244022 -0.000123052 0.0
0.249118 -0.000126437 0.0
0.238541 -0.000148478 0.0
0.23436 -0.000115888 0.0
0.244887 -0.000133281 0.0
1.67634e-35 -7.73874e-35 0.0
0.0322695 -6.04547e-06 0.0
0.0940424 -3.92931e-05 0.0
0.0651797 -2.34682e-05 0.0
0.196712 -0.000101305 0.0
0.217885 -0.000124528 0.0
0.177462 -0.000102811 0.0
0.148712 -7.16802e-05 0.0
0.120352 -5.01484e-05 0.0
1.66517e-35 8.0228e-35 0.0
0.0344062 -5.76836e-06 0.0
0.0716712 -2.35573e-05 0.0
0.152399 -8.04108e-05 0.0
0.127578 -6.98257e-05 0.0
0.187553 -0.000114917 0.0
0.211929 -0.000143232 0.0
0.248609 -0.000157004 0.0
0.225666 -0.000162338 0.0
0.249781 -0.000158146 0.0
0.246468 -0.000155473 0.0
0.242053 -0.000182012 0.0
0.2385 -0.000148061 0.0
1.67742e-35 -7.56851e-35 0.0
0.0338423 -7.57802e-06 0.0
0.0999453 -5.25173e-05 0.0
0.0694905 -3.12652e-05 0.0
0.206282 -0.000134074 0.0
0.222424 -0.000156362 0.0
0.190009 -0.000139337 0.0
0.16829 -0.000112461 0.0
0.143041 -8.62056e-05 0.0
0.124227 -6.35673e-05 0.0
0.097118 -4.26689e-05 0.0
1.66428e-35 7.85759e-35 0.0
0.0360443 -7.34692e-06 0.0
0.0673544 -2.52499e-05 0.0
0.130284 -8.44353e-05 0.0
0.168446 -0.000113001 0.0
0.199442 -0.000147538 0.0
0.218352 -0.000173241 0.0
0.242003 -0.000182459 0.0
0.25 -0.000190488 0.0
0.247994 -0.000188261 0.0
0.229057 -0.00019556 0.0
0.244925 -0.000216878 0.0
0.248736 -0.00019992 0.0
0.234463 -0.000186961 0.0
1.67865e-35 -7.39759e-35 0.0
0.0361878 -9.77246e-06 0.0
0.122592 -8.65291e-05 0.0
0.0711576 -3.70018e-05 0.0
0.20838 -0.000164091 0.0
0.225154 -0.000195413 0.0
0.19809 -0.000170407 0.0
0.177771 -0.000141026 0.0
0.146576 -0.000103902 0.0
0.119182 -7.2523e-05 0.0
0.0970956 -4.84204e-05 0.0
1.66321e-35 7.69301e-35 0.0
0.0349717 -8.22719e-06 0.0
0.0673291 -2.84393e-05 0.0
0.152244 -0.00011816 0.0
0.17797 -0.000144357 0.0
0.210079 -0.000182763 0.0
0.244871 -0.000216823 0.0
0.249424 -0.000222761 0.0
0.232196 -0.000230208 0.0
0.24418 -0.000246882 0.0
0.249989 -0.000263583 0.0
0.249127 -0.000234104 0.0
0.235937 -0.000224073 0.0
0.212913 -0.00022338 0.0
1.68006e-35 -7.22591e-35 0.0
0.0371037 -1.15167e-05 0.0
0.141032 -0.000120581 0.0
0.0998645 -7.28146e-05 0.0
0.066512 -3.60639e-05 0.0
0.213668 -0.000199814 0.0
0.186663 -0.000173894 0.0
0.165146 -0.000141429 0.0
0.122307 -8.70331e-05 0.0
0.0929287 -5.31332e-05 0.0
1.66199e-35 7.52909e-35 0.0
0.0349516 -9.18836e-06 0.0
0.0642943 -3.02125e-05 0.0
0.165529 -0.000151203 0.0
0.186909 -0.000177785 0.0
0.158035 -0.000158259 0.0
0.247103 -0.000253565 0.0
0.248702 -0.000291636 0.0
0.231013 -0.000258655 0.0
0.240498 -0.000276098 0.0
0.248747 -0.000291381 0.0
0.240228 -0.00025795 0.0
0.229296 -0.000253453 0.0
0.199115 -0.000218698 0.0
0.218576 -0.000261555 0.0
1.68163e-35 -7.05345e-35 0.0
0.0345813 -1.12999e-05 0.0
0.126061 -0.000117216 0.0
0.0680742 -4.07683e-05 0.0
0.0987037 -7.9327e-05 0.0
0.208141 -0.000228723 0.0
0.189828 -0.000199339 0.0
0.168202 -0.000165375 0.0
0.140697 -0.000119702 0.0
0.0954901 -6.32452e-05 0.0
1.66062e-35 7.36591e-35 0.0
0.0333059 -9.40615e-06 0.0
0.0661427 -3.59906e-05 0.0
0.183139 -0.000206639 0.0
0.159156 -0.000177216 0.0
0.244921 -0.000300741 0.0
0.249667 -0.000330255 0.0
0.235919 -0.00030288 0.0
0.244832 -0.000320193 0.0
0.249369 -0.000329446 0.0
0.238657 -0.000304561 0.0
0.218484 -0.000275221 0.0
0.203023 -0.000255336 0.0
0.223306 -0.000299222 0.0
1.6834e-35 -6.8801e-35 0.0
0.0477075 -2.25714e-05 0.0
0.127787 -0.000133725 0.0
0.0902885 -7.44845e-05 0.0
0.202684 -0.000245977 0.0
0.178057 -0.000202215 0.0
0.147989 -0.000151656 0.0
0.118817 -9.93422e-05 0.0
0.0781359 -5.30989e-05 0.0
1.65909e-35 7.20349e-35 0.0
0.0342981 -1.10848e-05 0.0
0.187727 -0.000244847 0.0
0.160274 -0.000197294 0.0
0.246476 -0.000343867 0.0
0.25 -0.000370609 0.0
0.240096 -0.000349895 0.0
0.247553 -0.000385889 0.0
0.239904 -0.000349646 0.0
0.227358 -0.000323682 0.0
0.209815 -0.000287898 0.0
0.227653 -0.000339765 0.0
0.210198 -0.000299995 0.0
1.68532e-35 -6.7058e-35 0.0
0.0477506 -2.51824e-05 0.0
0.127852 -0.000149368 0.0
0.0903445 -8.19234e-05 0.0
0.187274 -0.000243623 0.0
0.159739 -0.000190872 0.0
0.047295 -2.21623e-05 0.0
0.127216 -0.000131959 0.0
0.0897202 -7.29824e-05 0.0
1.65734e-35 7.04193e-35 0.0
0.187779 -0.000275321 0.0
0.160336 -0.000220951 0.0
0.247445 -0.000390336 0.0
0.249999 -0.000417807 0.0
0.240118 -0.000394696 0.0
0.247564 -0.000434078 0.0
0.227326 -0.000364674 0.0
0.239882 -0.000393963 0.0
0.187222 -0.000273867 0.0
0.209772 -0.000324132 0.0
0.227681 -0.000373161 0.0
0.210243 -0.000337417 0.0
1.68738e-35 -6.53053e-35 0.0
0.047798 -2.7614e-05 0.0
0.127925 -0.000166167 0.0
0.0904205 -9.19072e-05 0.0
0.127151 -0.000147965 0.0
0.15968 -0.000214302 0.0
0.0472548 -2.45839e-05 0.0
0.089659 -8.11514e-05 0.0
1.65548e-35 6.88126e-35 0.0
0.187838 -0.00030766 0.0
0.160405 -0.000246458 0.0
0.247433 -0.000438376 0.0
0.249999 -0.000468365 0.0
0.227711 -0.000409546 0.0
0.240153 -0.000461993 0.0
0.247577 -0.000486122 0.0
0.227295 -0.000399461 0.0
0.239857 -0.000441605 0.0
0.187179 -0.000297152 0.0
0.209723 -0.000362861 0.0
0.210293 -0.000377421 0.0
1.68979e-35 -6.35396e-35 0.0
0.0478536 -3.07075e-05 0.0
0.128019 -0.00018703 0.0
0.0904979 -0.000101558 0.0
0.12709 -0.000161698 0.0
0.159612 -0.000238778 0.0
0.0472058 -2.73133e-05 0.0
0.0895912 -8.96212e-05 0.0
1.6534e-35 6.72164e-35 0.0
0.160483 -0.000273568 0.0
0.187922 -0.000351035 0.0
0.247419 -0.00048994 0.0
0.249999 -0.000522709 0.0
0.240176 -0.000504767 0.0
0.227769 -0.000474078 0.0
0.247592 -0.000541376 0.0
0.239828 -0.000492429 0.0
0.227262 -0.00043747 0.0
0.187115 -0.000330748 0.0
0.209669 -0.000404077 0.0
0.210349 -0.000420741 0.0
1.69244e-35 -6.17628e-35 0.0
0.0479097 -3.38968e-05 0.0
0.128097 -0.000204044 0.0
0.0905834 -0.000112108 0.0
0.127011 -0.00017903 0.0
0.159536 -0.000265252 0.0
1.65114e-35 6.56305e-35 0.0
0.0895155 -9.91568e-05 0.0
0.0471565 -3.00206e-05 0.0
0.187998 -0.000390734 0.0
0.16057 -0.000303428 0.0
0.227809 -0.000517209 0.0
0.247404 -0.000545929 0.0
0.249998 -0.000581665 0.0
0.247604 -0.000588045 0.0
0.240202 -0.000549532 0.0
0.239796 -0.000547586 0.0
0.227216 -0.000486765 0.0
0.187024 -0.000376116 0.0
0.209607 -0.000449214 0.0
0.210412 -0.000467074 0.0
1.69519e-35 -5.99736e-35 0.0
0.0479734 -3.7391e-05 0.0
0.0906683 -0.000122231 0.0
0.128197 -0.00022525 0.0
0.126909 -0.00020063 0.0
0.159452 -0.000293717 0.0
1.64865e-35 6.40564e-35 0.0
0.0470973 -3.30248e-05 0.0
0.0894412 -0.000107938 0.0
0.188062 -0.000421663 0.0
0.160667 -0.000335945 0.0
0.227851 -0.000563569 0.0
0.240251 -0.000635429 0.0
0.247387 -0.000606725 0.0
0.249998 -0.000645263 0.0
0.247618 -0.000637204 0.0
0.239761 -0.000607354 0.0
0.227166 -0.000540317 0.0
0.186962 -0.000406139 0.0
0.209539 -0.000497361 0.0
0.210483 -0.000517933 0.0
1.69834e-35 -5.81684e-35 0.0
0.0480445 -4.10918e-05 0.0
0.128326 -0.000253005 0.0
0.090783 -0.00013666 0.0
0.126825 -0.000218127 0.0
0.159358 -0.000324541 0.0
0.0470382 -3.58636e-05 0.0
1.64591e-35 6.24948e-35 0.0
0.0893411 -0.000119784 0.0
0.160774 -0.000371428 0.0
0.188177 -0.000477758 0.0
0.227931 -0.000646416 0.0
0.240292 -0.000704836 0.0
0.247637 -0.000706482 0.0
0.247358 -0.000702558 0.0
0.249998 -0.00071574 0.0
0.239721 -0.000673851 0.0
0.227089 -0.000618641 0.0
0.18685 -0.000459628 0.0
0.209463 -0.000550687 0.0
0.210561 -0.000573011 0.0
1.70165e-35 -5.6349e-35 0.0
0.0481219 -4.51269e-05 0.0
0.0908982 -0.000150047 0.0
0.160892 -0.00040911 0.0
0.128432 -0.000274577 0.0
0.126718 -0.000240175 0.0
0.159276 -0.000351067 0.0
0.0469695 -3.95885e-05 0.0
1.64292e-35 6.09468e-35 0.0
0.0892495 -0.000130608 0.0
0.210634 -0.000624124 0.0
0.188256 -0.000515957 0.0
0.240328 -0.000763466 0.0
0.227997 -0.000716733 0.0
0.247669 -0.000816176 0.0
0.249997 -0.000791559 0.0
0.24734 -0.000759742 0.0
0.239676 -0.000744948 0.0
0.227036 -0.000671784 0.0
0.186774 -0.000494961 0.0
0.159139 -0.00039481 0.0
0.209379 -0.0006078 0.0
1.70557e-35 -5.45095e-35 0.0
0.0910136 -0.000164276 0.0
0.0482133 -5.02712e-05 0.0
0.160997 -0.000443752 0.0
0.128589 -0.000308494 0.0
0.126598 -0.000264508 0.0
1.63961e-35 5.94137e-35 0.0
0.0468942 -4.34676e-05 0.0
0.0891276 -0.000144841 0.0
0.210714 -0.000678391 0.0
0.188398 -0.000585366 0.0
0.240366 -0.000826571 0.0
0.228071 -0.00079275 0.0
0.247687 -0.000883731 0.0
0.249995 -0.000875309 0.0
0.247322 -0.000822648 0.0
0.159037 -0.000424989 0.0
0.2093 -0.000660496 0.0
0.239627 -0.00082201 0.0
0.226977 -0.000729688 0.0
0.186664 -0.000546133 0.0
1.70983e-35 -5.26521e-35 0.0
0.0483035 -5.49682e-05 0.0
0.0911518 -0.000180876 0.0
0.16114 -0.00048925 0.0
0.128743 -0.000340692 0.0
0.0890043 -0.000158542 0.0
0.126446 -0.000294973 0.0
1.63615e-35 5.78952e-35 0.0
0.0468078 -4.79553e-05 0.0
0.210817 -0.000749209 0.0
0.188528 -0.000646985 0.0
0.240419 -0.000913053 0.0
0.228153 -0.000876315 0.0
0.247708 -0.000955966 0.0
0.249995 -0.000967774 0.0
0.247281 -0.000948033 0.0
0.1589 -0.000467384 0.0
0.239572 -0.000908097 0.0
0.209214 -0.000715847 0.0
0.226872 -0.000834151 0.0
0.18651 -0.000618306 0.0
1.71417e-35 -5.07763e-35 0.0
0.0913217 -0.000201747 0.0
0.0484077 -6.06373e-05 0.0
0.16133 -0.000550245 0.0
0.128911 -0.000376202 0.0
0.0888834 -0.000172427 0.0
0.126298 -0.000324908 0.0
1.63199e-35 5.6398e-35 0.0
0.0467162 -5.26981e-05 0.0
0.18867 -0.000715467 0.0
0.210931 -0.000827856 0.0
0.240478 -0.00100964 0.0
0.247737 -0.00105404 0.0
0.228243 -0.000967748 0.0
0.249993 -0.00106686 0.0
0.247251 -0.00104869 0.0
0.239512 -0.00100061 0.0
0.2495 -0.0011442 0.0
0.158747 -0.000513835 0.0
0.226782 -0.00092064 0.0
0.209066 -0.00081212 0.0
0.186407 -0.000664657 0.0
1.71943e-35 -4.88709e-35 0.0
0.0914774 -0.000221026 0.0
0.0485306 -6.77631e-05 0.0
0.161472 -0.000596416 0.0
0.129098 -0.000415486 0.0
0.0887368 -0.000189079 0.0
0.126161 -0.000352149 0.0
1.62781e-35 5.49165e-35 0.0
0.046622 -5.76124e-05 0.0
0.188827 -0.000790258 0.0
0.211058 -0.000914666 0.0
0.240539 -0.00111357 0.0
0.228342 -0.00107008 0.0
0.247782 -0.00121759 0.0
0.249231 -0.00114393 0.0
0.243965 -0.00111005 0.0
0.233705 -0.00104241 0.0
0.249989 -0.00123832 0.0
0.158579 -0.00056471 0.0
0.218455 -0.000943635 0.0
0.203737 -0.000853025 0.0
0.186219 -0.000748191 0.0
1.72505e-35 -4.69443e-35 0.0
0.0916642 -0.000244313 0.0
0.0486584 -7.45701e-05 0.0
0.161664 -0.000659302 0.0
0.129304 -0.000459647 0.0
0.125957 -0.000392196 0.0
0.0885752 -0.000207549 0.0
1.62322e-35 5.34561e-35 0.0
0.0465084 -6.29535e-05 0.0
0.189002 -0.000873565 0.0
0.211197 -0.00101064 0.0
0.247815 -0.00134251 0.0
0.228451 -0.00118187 0.0
0.240612 -0.00123044 0.0
0.247194 -0.00122261 0.0
0.2394 -0.00117003 0.0
0.226614 -0.00108148 0.0
0.249984 -0.00136605 0.0
0.158393 -0.000621433 0.0
0.208842 -0.000957437 0.0
0.186049 -0.000823825 0.0
1.73147e-35 -4.49866e-35 0.0
0.0487935 -8.20514e-05 0.0
0.0918714 -0.000270945 0.0
0.129497 -0.000500679 0.0
0.189193 -0.000964319 0.0
0.161878 -0.000729045 0.0
0.12576 -0.000430545 0.0
0.0883975 -0.000227815 0.0
0.0463877 -6.8992e-05 0.0
1.61791e-35 5.20216e-35 0.0
0.22855 -0.0012837 0.0
0.211351 -0.0011182 0.0
0.247846 -0.0014507 0.0
0.240688 -0.00136077 0.0
0.226496 -0.0011908 0.0
0.24715 -0.00134777 0.0
0.239318 -0.00128942 0.0
0.249981 -0.00150685 0.0
0.185864 -0.000905348 0.0
0.158146 -0.000694436 0.0
0.208641 -0.00108443 0.0
1.7382e-35 -4.30001e-35 0.0
0.0489506 -9.14721e-05 0.0
0.092126 -0.000303566 0.0
0.129744 -0.00055343 0.0
0.189349 -0.00104231 0.0
0.162163 -0.000826419 0.0
0.125544 -0.000471815 0.0
0.0881835 -0.000251939 0.0
0.0462572 -7.52395e-05 0.0
1.61225e-35 5.06092e-35 0.0
0.125305 -0.000518452 0.0
0.228656 -0.00139023 0.0
0.211574 -0.0012774 0.0
0.240808 -0.00156628 0.0
0.247877 -0.00156503 0.0
0.226319 -0.00135534 0.0
0.23923 -0.00141953 0.0
0.247103 -0.00148703 0.0
0.249972 -0.00166217 0.0
0.185658 -0.0009951 0.0
0.157915 -0.000765179 0.0
0.208469 -0.00119574 0.0
1.74599e-35 -4.09737e-35 0.0
0.0491248 -0.000101502 0.0
0.0923842 -0.0003373 0.0
0.130019 -0.00061403 0.0
0.189579 -0.0011518 0.0
0.162431 -0.000916975 0.0
0.0461112 -8.31829e-05 0.0
0.0879656 -0.000277008 0.0
1.60586e-35 4.92253e-35 0.0
0.125085 -0.000559775 0.0
0.228798 -0.00153974 0.0
0.211768 -0.00141481 0.0
0.240904 -0.00173044 0.0
0.247919 -0.00173004 0.0
0.226195 -0.00146869 0.0
0.239132 -0.00156284 0.0
0.249966 -0.00183461 0.0
0.247024 -0.00171318 0.0
0.185489 -0.00106632 0.0
0.157661 -0.000840719 0.0
0.208278 -0.00131429 0.0
1.75425e-35 -3.89122e-35 0.0
0.0493167 -0.000112464 0.0
0.0926687 -0.000374052 0.0
0.13037 -0.00069105 0.0
0.189895 -0.00130789 0.0
0.21198 -0.00156886 0.0
0.162724 -0.00101905 0.0
0.0459627 -9.0561e-05 0.0
0.0877293 -0.000303409 0.0
1.59929e-35 4.78681e-35 0.0
0.124802 -0.000613921 0.0
0.229008 -0.0017615 0.0
0.240987 -0.00187798 0.0
0.247965 -0.00191178 0.0
0.249956 -0.00197733 0.0
0.226064 -0.00158788 0.0
0.239017 -0.00172375 0.0
0.246959 -0.00188852 0.0
0.157381 -0.000924094 0.0
0.185246 -0.00117173 0.0
0.208067 -0.00144452 0.0
1.76411e-35 -3.67972e-35 0.0
0.0495452 -0.000126562 0.0
0.0929878 -0.000417838 0.0
0.130714 -0.000770906 0.0
0.190109 -0.00141645 0.0
0.212212 -0.00173687 0.0
0.16305 -0.00113302 0.0
0.0457906 -9.88588e-05 0.0
0.0874692 -0.000332281 0.0
1.59179e-35 4.65465e-35 0.0
0.157139 -0.000991402 0.0
0.0871855 -0.000362191 0.0
0.124443 -0.00068135 0.0
0.229184 -0.00195989 0.0
0.241073 -0.00203041 0.0
0.248034 -0.00220904 0.0
0.249949 -0.00212696 0.0
0.246905 -0.00203811 0.0
0.225888 -0.00174511 0.0
0.238844 -0.00197328 0.0
0.184905 -0.00131502 0.0
0.20787 -0.00156882 0.0
0.229342 -0.00212894 0.0
1.77483e-35 -3.46389e-35 0.0
0.0497873 -0.000141717 0.0
0.131096 -0.000861367 0.0
0.0933425 -0.000468501 0.0
0.21247 -0.00193146 0.0
0.190495 -0.00161513 0.0
0.16341 -0.00126175 0.0
0.0455944 -0.000107989 0.0
1.58396e-35 4.52552e-35 0.0
0.184678 -0.00141255 0.0
0.156808 -0.00108763 0.0
0.124094 -0.000747679 0.0
0.045385 -0.000118698 0.0
0.0868722 -0.000397004 0.0
0.241194 -0.00224853 0.0
0.248074 -0.00238936 0.0
0.24993 -0.00234762 0.0
0.249916 -0.00253084 0.0
0.246842 -0.00219685 0.0
0.225688 -0.00192056 0.0
0.238694 -0.00217355 0.0
0.207654 -0.0016948 0.0
0.229504 -0.00231642 0.0
0.0500471 -0.000159444 0.0
1.7873e-35 -3.2421e-35 0.0
0.131454 -0.000945819 0.0
0.0937364 -0.000524901 0.0
0.212749 -0.00214696 0.0
0.190755 -0.00175299 0.0
0.16381 -0.00140919 0.0
1.57464e-35 4.40104e-35 0.0
0.184352 -0.00154506 0.0
0.156367 -0.00121095 0.0
0.123775 -0.000803015 0.0
0.0451726 -0.000128893 0.0
0.0865315 -0.000433368 0.0
0.241371 -0.0025959 0.0
0.248116 -0.00257839 0.0
0.249894 -0.00272313 0.0
0.246713 -0.00252232 0.0
0.225471 -0.00210861 0.0
0.238535 -0.00239156 0.0
0.207289 -0.00191395 0.0
0.229728 -0.00257416 0.0
1.80054e-35 -3.01425e-35 0.0
0.0503505 -0.000181022 0.0
0.131916 -0.00106131 0.0
0.094136 -0.000585443 0.0
0.164251 -0.00157404 0.0
0.213057 -0.00239303 0.0
0.191226 -0.00200608 0.0
1.81551e-35 -2.7789e-35 0.0
1.56536e-35 4.27981e-35 0.0
0.183989 -0.00169309 0.0
0.155958 -0.00132673 0.0
0.123365 -0.000878117 0.0
0.0861595 -0.000472403 0.0
0.0449281 -0.000139819 0.0
0.241511 -0.00287699 0.0
0.248166 -0.0028525 0.0
0.238389 -0.0025799 0.0
0.249863 -0.00300277 0.0
0.246602 -0.00278184 0.0
0.225227 -0.00231765 0.0
0.20697 -0.00209704 0.0
0.241625 -0.003128 0.0
0.229958 -0.00286224 0.0
0.0506899 -0.000203691 0.0
0.0946232 -0.000656821 0.0
0.132436 -0.00119778 0.0
0.16464 -0.00172941 0.0
0.213394 -0.00266705 0.0
0.191538 -0.00219065 0.0
1.83369e-35 -2.53375e-35 0.0
1.55479e-35 4.16346e-35 0.0
0.155605 -0.00141859 0.0
0.183487 -0.00188893 0.0
0.0857944 -0.000507933 0.0
0.122846 -0.000968865 0.0
0.0446606 -0.000152716 0.0
0.248243 -0.00328927 0.0
0.249816 -0.00331443 0.0
0.206622 -0.00229531 0.0
0.238229 -0.00277726 0.0
0.246509 -0.0029999 0.0
0.224855 -0.00262357 0.0
0.241748 -0.00338913 0.0
0.23031 -0.00330671 0.0
0.213755 -0.00298125 0.0
0.0510999 -0.000233108 0.0
0.0951759 -0.00074803 0.0
0.133107 -0.00138234 0.0
0.165175 -0.0019413 0.0
0.192106 -0.00253011 0.0
1.85415e-35 -2.2794e-35 0.0
1.54348e-35 4.05173e-35 0.0
0.155023 -0.0015713 0.0
0.183038 -0.00206547 0.0
0.0853107 -0.000556807 0.0
0.12235 -0.00105209 0.0
0.044359 -0.0001649 0.0
0.246403 -0.00323212 0.0
0.249761 -0.00364831 0.0
0.248282 -0.00364241 0.0
0.206236 -0.00250782 0.0
0.238012 -0.00304993 0.0
0.224541 -0.00288114 0.0
0.182545 -0.0022517 0.0
0.241958 -0.00391325 0.0
-2.86864e-36 -2.74273e-36 0.0
0.230572 -0.0036957 0.0
0.192612 -0.00285374 0.0
0.214142 -0.00333341 0.0
0.051531 -0.000268879 0.0
0.133668 -0.00155 0.0
0.0958739 -0.000877236 0.0
0.165885 -0.0022632 0.0
1.87831e-35 -2.01341e-35 0.0
-6.34244e-36 1.79048e-37 0.0
-6.16452e-36 -3.94293e-39 0.0
-5.92979e-36 -5.25533e-39 0.0
1.53123e-35 3.94528e-35 0.0
0.0440623 -0.00017634 0.0
0.121805 -0.0011436 0.0
0.154485 -0.00171085 0.0
0.0848796 -0.000598696 0.0
0.246245 -0.0035463 0.0
0.249684 -0.00401664 0.0
0.248321 -0.00402812 0.0
0.224255 -0.00309493 0.0
0.205807 -0.00273627 0.0
0.237652 -0.00346392 0.0
0.205412 -0.00294103 0.0
0.182143 -0.00239489 0.0
0.242101 -0.00434731 0.0
0.230852 -0.00411721 0.0
8.97225e-39 -5.73393e-36 0.0
7.33431e-07 2.90384e-06 0.0
-6.35727e-36 2.8982e-37 0.0
-9.4646e-05 0.000690317 0.0
0.214559 -0.00374318 0.0
0.193025 -0.00312638 0.0