# vtk DataFile Version 3.0
Mesh NS-CD Problem
ASCII
DATASET UNSTRUCTURED_GRID
POINTS 10839 float
-2 0.3 0.0
-2 0.4 0.0
-2 0.35 0.0
-2 0.45 0.0
-2 0.5 0.0
-2 0.55 0.0
-2 0 0.0
-2 0.05 0.0
-2 0.85 0.0
-2 0.9 0.0
-2 0.1 0.0
-2 0.15 0.0
-2 0.25 0.0
-2 0.2 0.0
-1.96653 0.266667 0.0
-1.96524 0.415385 0.0
-1.96485 0.315 0.0
-1.96348 0.363636 0.0
-1.96414 0.464286 0.0
-2 0.6 0.0
-1.96538 0.584615 0.0
-1.96538 0.538462 0.0
-1.94979 0 0.0
-1.96653 0.0666666 0.0
-1.93306 0.0333333 0.0
-2 0.8 0.0
-2 0.75 0.0
-2 0.7 0.0
-2 0.65 0.0
-1.96249 0.7375 0.0
-1.96666 0.833333 0.0
-2 1 0.0
-2 0.95 0.0
-1.96249 0.8875 0.0
-1.96666 0.933333 0.0
-1.96234 0.1125 0.0
-1.96653 0.166667 0.0
-1.93724 0.225 0.0
-1.92971 0.28 0.0
-1.93048 0.380769 0.0
-1.93048 0.423077 0.0
-1.89958 0.3375 0.0
-1.9292 0.484203 0.0
-1.92117 0.530907 0.0
-1.96363 0.636364 0.0
-1.93076 0.576923 0.0
-1.89958 0 0.0
-1.88703 0.0375 0.0
-1.90963 0.08 0.0
-1.86611 0.0666666 0.0
-1.93749 0.775 0.0
-1.93635 0.672727 0.0
-1.92999 0.72 0.0
-1.93332 0.866667 0.0
-1.92856 0.821429 0.0
-1.94999 1 0.0
-1.92499 0.9625 0.0
-1.92499 0.925 0.0
-1.89998 0.9 0.0
-1.89958 0.125 0.0
-1.92827 0.178571 0.0
-1.89958 0.233333 0.0
-1.89045 0.290909 0.0
-1.86096 0.311538 0.0
-1.89241 0.392857 0.0
-1.89334 0.448489 0.0
-1.85655 0.357143 0.0
-1.89614 0.653846 0.0
-1.89427 0.504121 0.0
-1.8952 0.559753 0.0
-1.89614 0.615385 0.0
-1.84937 0 0.0
-1.83264 0.0333333 0.0
-1.85655 0.107143 0.0
-1.81172 0.075 0.0
-1.89998 0.766667 0.0
-1.89089 0.709091 0.0
-1.87498 0.85 0.0
-1.85998 0.79 0.0
-1.88748 0.8125 0.0
-1.89998 1 0.0
-1.88748 0.9625 0.0
-1.86664 0.933333 0.0
-1.85712 0.892857 0.0
-1.87448 0.15 0.0
-1.86611 0.194444 0.0
-1.83264 0.133333 0.0
-1.83264 0.2625 0.0
-1.82068 0.321429 0.0
-1.85664 0.404762 0.0
-1.85674 0.452381 0.0
-1.85683 0.5 0.0
-1.81184 0.375 0.0
-1.85712 0.642857 0.0
-1.85693 0.547619 0.0
-1.85702 0.595238 0.0
-1.79917 0 0.0
-1.78482 0.0357143 0.0
-1.79917 0.116667 0.0
-1.76569 0.0666666 0.0
-1.85452 0.745455 0.0
-1.82689 0.692308 0.0
-1.81815 0.781818 0.0
-1.82497 0.825 0.0
-1.84997 1 0.0
-1.8333 0.958333 0.0
-1.81247 0.8875 0.0
-1.81247 0.925 0.0
-1.81742 0.218182 0.0
-1.82427 0.175 0.0
-1.77634 0.145455 0.0
-1.79144 0.242308 0.0
-1.78482 0.285714 0.0
-1.77469 0.332653 0.0
-1.81215 0.529762 0.0
-1.81194 0.422619 0.0
-1.81203 0.470238 0.0
-1.76714 0.392857 0.0
-1.81234 0.625 0.0
-1.79732 0.571429 0.0
-1.74896 0 0.0
-1.73222 0.0333333 0.0
-1.75398 0.105 0.0
-1.71883 0.07 0.0
-1.79227 0.730769 0.0
-1.78007 0.679121 0.0
-1.75765 0.769231 0.0
-1.78178 0.818182 0.0
-1.78996 0.86 0.0
-1.79996 1 0.0
-1.78568 0.964286 0.0
-1.76663 0.922222 0.0
-1.76569 0.1875 0.0
-1.73222 0.15 0.0
-1.74896 0.25 0.0
-1.73714 0.304762 0.0
-1.76743 0.537202 0.0
-1.72869 0.343878 0.0
-1.76732 0.485119 0.0
-1.76723 0.440476 0.0
-1.72243 0.410714 0.0
-1.76757 0.607143 0.0
-1.69875 0 0.0
-1.68369 0.035 0.0
-1.69875 0.1125 0.0
-1.66528 0.075 0.0
-1.74341 0.708974 0.0
-1.73324 0.665934 0.0
-1.70441 0.74478 0.0
-1.71423 0.785714 0.0
-1.72303 0.826923 0.0
-1.74541 0.854545 0.0
-1.74541 0.890909 0.0
-1.74996 1 0.0
-1.73745 0.9625 0.0
-1.71359 0.927273 0.0
-1.68716 0.153846 0.0
-1.7131 0.214286 0.0
-1.70725 0.275 0.0
-1.69712 0.321939 0.0
-1.72279 0.589286 0.0
-1.72261 0.5 0.0
-1.7227 0.544643 0.0
-1.6827 0.355102 0.0
-1.67773 0.428571 0.0
-1.70763 0.464286 0.0
-1.70369 0.62449 0.0
-1.64854 0 0.0
-1.63181 0.0375 0.0
-1.64137 0.142857 0.0
-1.61764 0.0769231 0.0
-1.69458 0.703846 0.0
-1.67471 0.657437 0.0
-1.66143 0.727637 0.0
-1.67125 0.768571 0.0
-1.67851 0.821429 0.0
-1.68841 0.861538 0.0
-1.70904 0.890909 0.0
-1.69995 1 0.0
-1.68176 0.963636 0.0
-1.67267 0.927273 0.0
-1.65427 0.187143 0.0
-1.66718 0.231429 0.0
-1.66554 0.3 0.0
-1.67802 0.571429 0.0
-1.67792 0.523809 0.0
-1.6367 0.366327 0.0
-1.63682 0.423469 0.0
-1.62568 0.502976 0.0
-1.6629 0.470238 0.0
-1.65254 0.618367 0.0
-1.6059 0.307143 0.0
-1.59833 0 0.0
-1.58288 0.0384615 0.0
-1.60563 0.169643 0.0
-1.58179 0.112271 0.0
-1.56964 0.0714286 0.0
-1.64574 0.690385 0.0
-1.62827 0.751429 0.0
-1.63371 0.791071 0.0
-1.64279 0.857143 0.0
-1.65378 0.896154 0.0
-1.64994 1 0.0
-1.6363 0.963636 0.0
-1.61916 0.930769 0.0
-1.61345 0.209107 0.0
-1.62126 0.248571 0.0
-1.56989 0.196429 0.0
-1.63324 0.553571 0.0
-1.58846 0.535714 0.0
-1.59408 0.361905 0.0
-1.59161 0.402211 0.0
-1.58832 0.464286 0.0
-1.61504 0.598581 0.0
-1.59683 0.64359 0.0
-1.57899 0.274107 0.0
-1.56176 0.322381 0.0
-1.54812 0 0.0
-1.53378 0.0357143 0.0
-1.54593 0.147619 0.0
-1.53385 0.0732143 0.0
-1.53393 0.110714 0.0
-1.58522 0.704286 0.0
-1.58709 0.745 0.0
-1.58896 0.785714 0.0
-1.60695 0.830357 0.0
-1.60707 0.892857 0.0
-1.59993 1 0.0
-1.58454 0.965385 0.0
-1.57135 0.928571 0.0
-1.55209 0.241071 0.0
-1.5291 0.198214 0.0
-1.56936 0.570918 0.0
-1.54369 0.517857 0.0
-1.5464 0.380952 0.0
-1.54564 0.427721 0.0
-1.54488 0.47449 0.0
-1.55026 0.606122 0.0
-1.54222 0.677143 0.0
-1.52943 0.282857 0.0
-1.52143 0.33619 0.0
-1.49792 0 0.0
-1.49802 0.05 0.0
-1.49822 0.15 0.0
-1.49312 0.1 0.0
-1.5423 0.717143 0.0
-1.54419 0.767857 0.0
-1.54727 0.819048 0.0
-1.57122 0.861905 0.0
-1.53553 0.914286 0.0
-1.54992 1 0.0
-1.53563 0.964286 0.0
-1.49842 0.25 0.0
-1.48831 0.2 0.0
-1.5214 0.558929 0.0
-1.49891 0.5 0.0
-1.49871 0.4 0.0
-1.47631 0.45 0.0
-1.49911 0.6 0.0
-1.49921 0.65 0.0
-1.49931 0.7 0.0
-1.48111 0.35 0.0
-1.48351 0.3 0.0
-1.44771 0 0.0
-1.44782 0.05 0.0
-1.44804 0.15 0.0
-1.44793 0.1 0.0
-1.49941 0.75 0.0
-1.49951 0.8 0.0
-1.49981 0.95 0.0
-1.49961 0.85 0.0
-1.49971 0.9 0.0
-1.49991 1 0.0
-1.44826 0.25 0.0
-1.43815 0.2 0.0
-1.47151 0.55 0.0
-1.44881 0.5 0.0
-1.44859 0.4 0.0
-1.42619 0.45 0.0
-1.44913 0.65 0.0
-1.44902 0.6 0.0
-1.44935 0.75 0.0
-1.44924 0.7 0.0
-1.43972 0.35 0.0
-1.43336 0.3 0.0
-1.3975 0 0.0
-1.39762 0.05 0.0
-1.39786 0.15 0.0
-1.39274 0.1 0.0
-1.44957 0.85 0.0
-1.44946 0.8 0.0
-1.4523 0.95 0.0
-1.44968 0.9 0.0
-1.4499 1 0.0
-1.3981 0.25 0.0
-1.38798 0.2 0.0
-1.42141 0.55 0.0
-1.3987 0.5 0.0
-1.39834 0.35 0.0
-1.37845 0.4 0.0
-1.37607 0.45 0.0
-1.40784 0.65 0.0
-1.39894 0.6 0.0
-1.41185 0.75 0.0
-1.39918 0.7 0.0
-1.38322 0.3 0.0
-1.34729 0 0.0
-1.34492 0.05 0.0
-1.34018 0.15 0.0
-1.34255 0.1 0.0
-1.40707 0.85 0.0
-1.39941 0.8 0.0
-1.39977 0.95 0.0
-1.39965 0.9 0.0
-1.39989 1 0.0
-1.33781 0.2 0.0
-1.33544 0.25 0.0
-1.37131 0.55 0.0
-1.34859 0.5 0.0
-1.33833 0.4 0.0
-1.3307 0.35 0.0
-1.32595 0.45 0.0
-1.34885 0.6 0.0
-1.36655 0.65 0.0
-1.36179 0.75 0.0
-1.34911 0.7 0.0
-1.33307 0.3 0.0
-1.29708 0 0.0
-1.29722 0.05 0.0
-1.2975 0.15 0.0
-1.29236 0.1 0.0
-1.35703 0.85 0.0
-1.34937 0.8 0.0
-1.34988 1 0.0
-1.34962 0.9 0.0
-1.35226 0.95 0.0
-1.28528 0.25 0.0
-1.28764 0.2 0.0
-1.28931 0.35 0.0
-1.32121 0.55 0.0
-1.29848 0.5 0.0
-1.28709 0.45 0.0
-1.2982 0.4 0.0
-1.29876 0.6 0.0
-1.31647 0.65 0.0
-1.29918 0.75 0.0
-1.29904 0.7 0.0
-1.28292 0.3 0.0
-1.24687 0 0.0
-1.24702 0.05 0.0
-1.24717 0.1 0.0
-1.24732 0.15 0.0
-1.29946 0.85 0.0
-1.29932 0.8 0.0
-1.29987 1 0.0
-1.29974 0.95 0.0
-1.30462 0.9 0.0
-1.24762 0.25 0.0
-1.23747 0.2 0.0
-1.24792 0.35 0.0
-1.22807 0.4 0.0
-1.27111 0.55 0.0
-1.24837 0.5 0.0
-1.24822 0.45 0.0
-1.24867 0.6 0.0
-1.26639 0.65 0.0
-1.26167 0.75 0.0
-1.24897 0.7 0.0
-1.23277 0.3 0.0
-1.19667 0 0.0
-1.19683 0.05 0.0
-1.18964 0.15 0.0
-1.19198 0.1 0.0
-1.25695 0.85 0.0
-1.24927 0.8 0.0
-1.25223 0.95 0.0
-1.24987 1 0.0
-1.24957 0.9 0.0
-1.1873 0.2 0.0
-1.18496 0.25 0.0
-1.18028 0.35 0.0
-1.17794 0.4 0.0
-1.1981 0.45 0.0
-1.19842 0.55 0.0
-1.19826 0.5 0.0
-1.19858 0.6 0.0
-1.19874 0.65 0.0
-1.19906 0.75 0.0
-1.1989 0.7 0.0
-1.18262 0.3 0.0
-1.14646 0 0.0
-1.14663 0.05 0.0
-1.1418 0.1 0.0
-1.13713 0.2 0.0
-1.14697 0.15 0.0
-1.20691 0.85 0.0
-1.20926 0.8 0.0
-1.20221 0.95 0.0
-1.19986 1 0.0
-1.20456 0.9 0.0
-1.13997 0.3 0.0
-1.14731 0.25 0.0
-1.13781 0.4 0.0
-1.13014 0.35 0.0
-1.12548 0.45 0.0
-1.14815 0.5 0.0
-1.15962 0.55 0.0
-1.14849 0.6 0.0
-1.15745 0.65 0.0
-1.16155 0.75 0.0
-1.14917 0.8 0.0
-1.14883 0.7 0.0
-1.09625 0 0.0
-1.09661 0.1 0.0
-1.09393 0.05 0.0
-1.09697 0.2 0.0
-1.08929 0.15 0.0
-1.15687 0.85 0.0
-1.14985 1 0.0
-1.15219 0.95 0.0
-1.14951 0.9 0.0
-1.09733 0.3 0.0
-1.08465 0.25 0.0
-1.09769 0.4 0.0
-1.08 0.35 0.0
-1.08661 0.45 0.0
-1.09804 0.5 0.0
-1.12082 0.55 0.0
-1.10916 0.8 0.0
-1.10629 0.7 0.0
-1.0984 0.6 0.0
-1.11616 0.65 0.0
-1.11149 0.75 0.0
-1.04604 0 0.0
-1.04623 0.05 0.0
-1.04642 0.1 0.0
-1.0468 0.2 0.0
-1.03911 0.15 0.0
-1.09948 0.9 0.0
-1.0993 0.85 0.0
-1.09984 1 0.0
-1.09966 0.95 0.0
-1.04718 0.3 0.0
-1.03449 0.25 0.0
-1.04756 0.4 0.0
-1.02986 0.35 0.0
-1.04775 0.45 0.0
-1.04794 0.5 0.0
-1.04813 0.55 0.0
-1.05911 0.8 0.0
-1.04831 0.6 0.0
-1.06376 0.7 0.0
-1.0485 0.65 0.0
-1.04888 0.75 0.0
-0.995833 0 0.0
-0.991231 0.1 0.0
-0.996033 0.05 0.0
-0.986629 0.2 0.0
-0.98893 0.15 0.0
-1.05447 0.9 0.0
-1.04926 0.85 0.0
-1.04983 1 0.0
-1.04964 0.95 0.0
-0.984328 0.25 0.0
-0.99703 0.3 0.0
-0.997429 0.4 0.0
-0.997628 0.45 0.0
-0.979726 0.35 0.0
-0.997827 0.5 0.0
-0.998027 0.55 0.0
-0.998226 0.6 0.0
-0.961416 0.475 0.0
-1.00907 0.8 0.0
-0.998426 0.65 0.0
-0.998625 0.7 0.0
-1.01138 0.75 0.0
-0.945625 0 0.0
-0.946044 0.1 0.0
-0.943334 0.05 0.0
-0.946463 0.2 0.0
-0.938752 0.15 0.0
-1.00444 0.9 0.0
-1.00675 0.85 0.0
-0.999821 1 0.0
-1.00213 0.95 0.0
-0.93417 0.25 0.0
-0.946881 0.3 0.0
-0.9473 0.4 0.0
-0.929588 0.35 0.0
-0.925005 0.45 0.0
-0.960371 0.525 0.0
-0.959325 0.575 0.0
-0.958279 0.625 0.0
-0.922714 0.5 0.0
-0.959017 0.8 0.0
-0.957233 0.675 0.0
-0.952999 0.7125 0.0
-0.948766 0.75 0.0
-0.895417 0 0.0
-0.895855 0.1 0.0
-0.893136 0.05 0.0
-0.896294 0.2 0.0
-0.888573 0.15 0.0
-0.949184 0.85 0.0
-0.954415 0.9 0.0
-0.949812 1 0.0
-0.949603 0.95 0.0
-0.884011 0.25 0.0
-0.896733 0.3 0.0
-0.874887 0.45 0.0
-0.879449 0.35 0.0
-0.897171 0.4 0.0
-0.920423 0.55 0.0
-0.918132 0.6 0.0
-0.915841 0.65 0.0
-0.872606 0.5 0.0
-0.908968 0.8 0.0
-0.91355 0.7 0.0
-0.898707 0.75 0.0
-0.845208 0 0.0
-0.845438 0.05 0.0
-0.845667 0.1 0.0
-0.845896 0.15 0.0
-0.833853 0.25 0.0
-0.846126 0.2 0.0
-0.899146 0.85 0.0
-0.904386 0.9 0.0
-0.899584 0.95 0.0
-0.899804 1 0.0
-0.838062 0.35 0.0
[...]
POINT_DATA 10839
VECTORS Velocity float
0.21 0 0.0
0.24 0 0.0
0.2275 0 0.0
0.2475 0 0.0
0.25 0 0.0
0.2475 0 0.0
0 0 0.0
0.0475 0 0.0
0.1275 0 0.0
0.09 0 0.0
0.09 0 0.0
0.1275 0 0.0
0.1875 0 0.0
0.16 0 0.0
0.195557 -2.43643e-05 0.0
0.242841 -3.32283e-05 0.0
0.215776 -2.89966e-05 0.0
0.231406 -3.26859e-05 0.0
0.248725 -3.53776e-05 0.0
0.24 0 0.0
0.24284 -3.3154e-05 0.0
0.24852 -3.40701e-05 0.0
0 0 0.0
0.0622239 -4.25193e-06 0.0
0.032227 -2.81097e-06 0.0
0.16 0 0.0
0.1875 0 0.0
0.21 0 0.0
0.2275 0 0.0
0.193592 -2.73487e-05 0.0
0.138887 -1.51914e-05 0.0
0 0 0.0
0.0475 0 0.0
0.0998415 -1.05557e-05 0.0
0.0622205 -4.29966e-06 0.0
0.0998462 -1.10292e-05 0.0
0.138891 -1.53263e-05 0.0
0.17438 -3.84033e-05 0.0
0.201606 -5.25984e-05 0.0
0.235787 -6.42121e-05 0.0
0.244085 -6.71876e-05 0.0
0.223602 -8.60807e-05 0.0
0.249751 -7.01958e-05 0.0
0.249044 -7.82192e-05 0.0
0.231404 -3.32164e-05 0.0
0.244081 -6.6393e-05 0.0
0 0 0.0
0.0361083 -5.43829e-06 0.0
0.0736129 -1.51983e-05 0.0
0.0622495 -1.66577e-05 0.0
0.17437 -3.78394e-05 0.0
0.220162 -5.25761e-05 0.0
0.201594 -5.26773e-05 0.0
0.115548 -2.26972e-05 0.0
0.146676 -3.5162e-05 0.0
0 0 0.0
0.0360873 -3.66341e-06 0.0
0.0693659 -1.18827e-05 0.0
0.0899832 -2.35816e-05 0.0
0.109391 -3.18959e-05 0.0
0.146692 -3.44812e-05 0.0
0.178902 -6.43997e-05 0.0
0.206293 -8.42029e-05 0.0
0.214501 -0.000113477 0.0
0.238527 -0.000100658 0.0
0.24735 -0.000104815 0.0
0.229607 -0.000128132 0.0
0.226323 -9.04496e-05 0.0
0.249983 -0.000105334 0.0
0.246426 -0.000102478 0.0
0.23668 -9.64872e-05 0.0
0 0 0.0
0.032251 -6.15008e-06 0.0
0.095697 -3.6232e-05 0.0
0.06943 -2.73131e-05 0.0
0.178876 -6.34209e-05 0.0
0.206269 -8.48408e-05 0.0
0.127476 -4.89067e-05 0.0
0.165873 -8.02726e-05 0.0
0.152325 -5.74805e-05 0.0
0 0 0.0
0.0360794 -5.26733e-06 0.0
0.0621954 -1.64815e-05 0.0
0.0956295 -3.69185e-05 0.0
0.127525 -4.93777e-05 0.0
0.156661 -7.17313e-05 0.0
0.115601 -5.67039e-05 0.0
0.193627 -0.000118316 0.0
0.218142 -0.000149727 0.0
0.24094 -0.000136524 0.0
0.247738 -0.000141588 0.0
0.25 -0.000143134 0.0
0.234398 -0.00017334 0.0
0.229576 -0.000126365 0.0
0.247727 -0.000141278 0.0
0.240919 -0.000136286 0.0
0 0 0.0
0.0344879 -8.52121e-06 0.0
0.103122 -5.57271e-05 0.0
0.0623041 -2.76769e-05 0.0
0.189727 -0.000100545 0.0
0.212988 -0.000140461 0.0
0.170533 -0.000108902 0.0
0.144329 -8.08259e-05 0.0
0 0 0.0
0.0398976 -9.07236e-06 0.0
0.0997855 -5.06547e-05 0.0
0.0693205 -2.6866e-05 0.0
0.170625 -0.000109022 0.0
0.144422 -8.2571e-05 0.0
0.124378 -8.37551e-05 0.0
0.18365 -0.00013784 0.0
0.204132 -0.000165039 0.0
0.222039 -0.000194332 0.0
0.249109 -0.000187955 0.0
0.244027 -0.000182942 0.0
0.24912 -0.000187962 0.0
0.238551 -0.000220736 0.0
0.234352 -0.000172328 0.0
0.244882 -0.000198149 0.0
0 0 0.0
0.0322927 -9.02895e-06 0.0
0.0940754 -5.86007e-05 0.0
0.0652188 -3.50319e-05 0.0
0.196695 -0.000150738 0.0
0.217871 -0.000185215 0.0
0.177437 -0.000153026 0.0
0.148689 -0.000106759 0.0
0.120328 -7.47323e-05 0.0
0 0 0.0
0.0343902 -8.60507e-06 0.0
0.0716431 -3.51407e-05 0.0
0.152425 -0.000119744 0.0
0.127616 -0.000104045 0.0
0.187579 -0.000170994 0.0
0.211952 -0.000213009 0.0
0.248605 -0.000233376 0.0
0.225686 -0.000241347 0.0
0.249783 -0.000235066 0.0
0.246474 -0.000231103 0.0
0.242065 -0.00027051 0.0
0.23849 -0.000220124 0.0
0 0 0.0
0.0338754 -1.13234e-05 0.0
0.0999949 -7.83177e-05 0.0
0.0695471 -4.6673e-05 0.0
0.206259 -0.000199435 0.0
0.222404 -0.000232497 0.0
0.189974 -0.000207286 0.0
0.168252 -0.000167398 0.0
0.143002 -0.000128397 0.0
0.124193 -9.47273e-05 0.0
0.0970827 -6.36243e-05 0.0
0 0 0.0
0.03602 -1.0966e-05 0.0
0.0673134 -3.76769e-05 0.0
0.130336 -0.000125789 0.0
0.168484 -0.000168192 0.0
0.199474 -0.000219433 0.0
0.218379 -0.000257544 0.0
0.241992 -0.000271182 0.0
0.25 -0.00028307 0.0
0.247988 -0.000279772 0.0
0.229082 -0.000290629 0.0
0.244938 -0.000322206 0.0
0.248741 -0.000297061 0.0
0.234444 -0.000277878 0.0
0 0 0.0
0.0362342 -1.46075e-05 0.0
0.122661 -0.000128915 0.0
0.0712319 -5.52351e-05 0.0
0.208348 -0.000244 0.0
0.225125 -0.000290426 0.0
0.198046 -0.00025338 0.0
0.177723 -0.00020981 0.0
0.146524 -0.000154708 0.0
0.11913 -0.000108072 0.0
0.0970494 -7.22015e-05 0.0
0 0 0.0
0.0349375 -1.22842e-05 0.0
0.0672757 -4.24392e-05 0.0
0.152303 -0.000175884 0.0
0.178019 -0.000214747 0.0
0.210117 -0.000271677 0.0
0.244858 -0.000322131 0.0
0.24942 -0.000330922 0.0
0.232227 -0.000341959 0.0
0.244198 -0.000366643 0.0
0.249988 -0.00039136 0.0
0.249132 -0.000347722 0.0
0.235912 -0.00033288 0.0
0.212965 -0.000331839 0.0
0 0 0.0
0.0371635 -1.7217e-05 0.0
0.141113 -0.000179486 0.0
0.0999612 -0.000108544 0.0
0.066603 -5.38484e-05 0.0
0.213627 -0.000296957 0.0
0.186605 -0.000258549 0.0
0.165082 -0.000210407 0.0
0.122238 -0.000129651 0.0
0.0928634 -7.92288e-05 0.0
0 0 0.0
0.0349075 -1.37223e-05 0.0
0.0642239 -4.50884e-05 0.0
0.1656 -0.000224903 0.0
0.18697 -0.000264307 0.0
0.158127 -0.000235349 0.0
0.247091 -0.000376537 0.0
0.248691 -0.000432836 0.0
0.231053 -0.000384045 0.0
0.240527 -0.000409856 0.0
0.248758 -0.000432462 0.0
0.240202 -0.000383021 0.0
0.229255 -0.000376351 0.0
0.199184 -0.000324887 0.0
0.218636 -0.000388299 0.0
0 0 0.0
0.0346515 -1.68977e-05 0.0
0.126174 -0.000174482 0.0
0.0681822 -6.08634e-05 0.0
0.0988243 -0.00011823 0.0
0.20808 -0.000339729 0.0
0.189757 -0.000296223 0.0
0.168122 -0.000245896 0.0
0.140616 -0.000178162 0.0
0.0954055 -9.42801e-05 0.0
0 0 0.0
0.0332511 -1.40496e-05 0.0
0.0660524 -5.37033e-05 0.0
0.183227 -0.000307001 0.0
0.159267 -0.00026341 0.0
0.244897 -0.000446275 0.0
0.24966 -0.000489869 0.0
0.235963 -0.000449405 0.0
0.244859 -0.000475005 0.0
0.249378 -0.000488681 0.0
0.238619 -0.000451887 0.0
0.218418 -0.000408471 0.0
0.203108 -0.000379046 0.0
0.223373 -0.000443947 0.0
0 0 0.0
0.0478097 -3.37339e-05 0.0
0.127926 -0.000198952 0.0
0.0904294 -0.000111036 0.0
0.202605 -0.000365202 0.0
0.177963 -0.000300423 0.0
0.147883 -0.000225527 0.0
0.118715 -0.000147921 0.0
0.0780225 -7.91795e-05 0.0
0 0 0.0
0.0342288 -1.65588e-05 0.0
0.187836 -0.000363473 0.0
0.160406 -0.0002931 0.0
0.246451 -0.000509931 0.0
0.25 -0.000549392 0.0
0.240141 -0.000518795 0.0
0.247578 -0.0005719 0.0
0.239858 -0.000518397 0.0
0.227289 -0.000480015 0.0
0.209725 -0.000427112 0.0
0.227727 -0.000503781 0.0
0.210293 -0.000444997 0.0
0 0 0.0
0.0478739 -3.76352e-05 0.0
0.128022 -0.000222113 0.0
0.0905126 -0.000122098 0.0
0.187165 -0.000361629 0.0
0.159613 -0.000283561 0.0
0.0471942 -3.3088e-05 0.0
0.127078 -0.000196278 0.0
0.0895835 -0.000108746 0.0
0 0 0.0
0.187913 -0.000408438 0.0
0.160497 -0.000328046 0.0
0.247419 -0.000578422 0.0
0.249999 -0.00061892 0.0
0.240174 -0.000584827 0.0
0.247595 -0.000642873 0.0
0.227242 -0.000540398 0.0
0.239825 -0.000583675 0.0
0.187089 -0.000406224 0.0
0.209662 -0.000480507 0.0
0.227768 -0.000552991 0.0
0.21036 -0.000500172 0.0
0 0 0.0
0.0479447 -4.12643e-05 0.0
0.12813 -0.000246974 0.0
0.0906254 -0.000136941 0.0
0.126981 -0.000219969 0.0
0.159525 -0.000318159 0.0
0.0471342 -3.66967e-05 0.0
0.0894926 -0.000120875 0.0
0 0 0.0
0.188 -0.000456117 0.0
0.1606 -0.000365703 0.0
0.247401 -0.000649138 0.0
0.249999 -0.00069333 0.0
0.227813 -0.000606577 0.0
0.240226 -0.000683903 0.0
0.247614 -0.000719475 0.0
0.227196 -0.000591572 0.0
0.239788 -0.000653772 0.0
0.187024 -0.000440519 0.0
0.20959 -0.000537522 0.0
0.210434 -0.00055912 0.0
0 0 0.0
0.0480277 -4.58904e-05 0.0
0.128269 -0.000277834 0.0
0.0907403 -0.000151276 0.0
0.126892 -0.000240276 0.0
0.159425 -0.000354275 0.0
0.0470612 -4.07659e-05 0.0
0.0893919 -0.00013345 0.0
0 0 0.0
0.160715 -0.00040571 0.0
0.188124 -0.000520035 0.0
0.247381 -0.000724968 0.0
0.249998 -0.000773251 0.0
0.240261 -0.000746869 0.0
0.227898 -0.000701595 0.0
0.247636 -0.000800758 0.0
0.239746 -0.000728477 0.0
0.227147 -0.000647459 0.0
0.18693 -0.000489984 0.0
0.20951 -0.000598139 0.0
0.210517 -0.000622944 0.0
0 0 0.0
0.0481113 -5.06543e-05 0.0
0.128384 -0.000302996 0.0
0.0908672 -0.000166931 0.0
0.126775 -0.000265918 0.0
0.159313 -0.000393333 0.0
0 0 0.0
0.0892795 -0.000147622 0.0
0.0469876 -4.48006e-05 0.0
0.188236 -0.000578573 0.0
0.160843 -0.000449769 0.0
0.227956 -0.000765132 0.0
0.247358 -0.000807258 0.0
0.249997 -0.00085993 0.0
0.247654 -0.000869425 0.0
0.240298 -0.000812771 0.0
0.239699 -0.000809501 0.0
0.227081 -0.000719888 0.0
0.186795 -0.000556748 0.0
0.20942 -0.000664501 0.0
0.21061 -0.000691224 0.0
0 0 0.0
0.0482064 -5.58502e-05 0.0
0.090993 -0.000181924 0.0
0.128532 -0.000334323 0.0
0.126624 -0.000297916 0.0
0.159189 -0.00043536 0.0
0 0 0.0
0.0468994 -4.92863e-05 0.0
0.0891693 -0.000160694 0.0
0.18833 -0.000624201 0.0
0.160986 -0.000497762 0.0
0.228019 -0.000833463 0.0
0.240371 -0.000939336 0.0
0.247333 -0.000896585 0.0
0.249997 -0.000953432 0.0
0.247675 -0.000941776 0.0
0.239646 -0.000897256 0.0
0.227006 -0.000798533 0.0
0.186705 -0.000600967 0.0
0.209319 -0.000735254 0.0
0.210714 -0.000766265 0.0
0 0 0.0
0.0483122 -6.13226e-05 0.0
0.128723 -0.000375264 0.0
0.091163 -0.000203208 0.0
0.1265 -0.00032392 0.0
0.159051 -0.000480922 0.0
0.0468113 -5.35539e-05 0.0
0 0 0.0
0.0890208 -0.00017841 0.0
0.161145 -0.000550149 0.0
0.188501 -0.000707053 0.0
0.228137 -0.000955817 0.0
0.240431 -0.00104181 0.0
0.247702 -0.00104384 0.0
0.24729 -0.00103732 0.0
0.249996 -0.00105711 0.0
0.239587 -0.000994881 0.0
0.226893 -0.000913451 0.0
0.18654 -0.000679765 0.0
0.209207 -0.000813627 0.0
0.210829 -0.00084768 0.0
0 0 0.0
0.0484275 -6.72096e-05 0.0
0.0913335 -0.000222796 0.0
0.16132 -0.000605788 0.0
0.12888 -0.000406991 0.0
0.126341 -0.000356829 0.0
0.158929 -0.000520232 0.0
0.0467088 -5.92069e-05 0.0
0 0 0.0
0.0888849 -0.000194713 0.0
0.210936 -0.000923421 0.0
0.188618 -0.000763619 0.0
0.240483 -0.00112855 0.0
0.228234 -0.00106006 0.0
0.247748 -0.00120569 0.0
0.249994 -0.00116871 0.0
0.247264 -0.00112131 0.0
0.239522 -0.00109917 0.0
0.226814 -0.000991391 0.0
0.186428 -0.000731875 0.0
0.158728 -0.000585235 0.0
0.209084 -0.000897508 0.0
0 0 0.0
0.0915044 -0.000243441 0.0
0.0485632 -7.46348e-05 0.0
0.161474 -0.000657013 0.0
0.129112 -0.000456789 0.0
0.126165 -0.000393396 0.0
0 0 0.0
0.0465962 -6.51695e-05 0.0
0.0887038 -0.000216413 0.0
0.211055 -0.00100412 0.0
0.188828 -0.000866766 0.0
0.240539 -0.00122212 0.0
0.228343 -0.0011732 0.0
0.247774 -0.00130567 0.0
0.249991 -0.00129211 0.0
0.247236 -0.00121375 0.0
0.158579 -0.000630227 0.0
0.208968 -0.000974816 0.0
0.239448 -0.00121209 0.0
0.226728 -0.00107625 0.0
0.186267 -0.0008074 0.0
0 0 0.0
0.0486966 -8.12742e-05 0.0
0.0917087 -0.000267315 0.0
0.161686 -0.000724482 0.0
0.12934 -0.000503925 0.0
0.0885203 -0.000237686 0.0
0.12594 -0.000439599 0.0
0 0 0.0
0.0464665 -7.22433e-05 0.0
0.211207 -0.00110997 0.0
0.18902 -0.000958867 0.0
0.240616 -0.00135083 0.0
0.228463 -0.00129829 0.0
0.247804 -0.00141281 0.0
0.249989 -0.00142851 0.0
0.247175 -0.00139783 0.0
0.158378 -0.000693628 0.0
0.239368 -0.00133803 0.0
0.208842 -0.00105585 0.0
0.226574 -0.00122898 0.0
0.186042 -0.00091388 0.0
0 0 0.0
0.0919599 -0.000297112 0.0
0.0488501 -8.91262e-05 0.0
0.161969 -0.000815442 0.0
0.12959 -0.000555948 0.0
0.0883402 -0.000259575 0.0
0.125723 -0.000485442 0.0
0 0 0.0
0.0463285 -7.98796e-05 0.0
0.189231 -0.00106208 0.0
0.211376 -0.00122845 0.0
0.240701 -0.00149542 0.0
0.247844 -0.00155868 0.0
0.228595 -0.00143615 0.0
0.249984 -0.00157485 0.0
0.247128 -0.00154556 0.0
0.239278 -0.00147305 0.0
0.249552 -0.00169119 0.0
0.158155 -0.000763201 0.0
0.226442 -0.00135487 0.0
0.208627 -0.00119632 0.0
0.185893 -0.00098207 0.0
0 0 0.0
0.0921901 -0.000324547 0.0
0.0490305 -9.89315e-05 0.0
0.162182 -0.000884958 0.0
0.129868 -0.000613876 0.0
0.0881212 -0.000286229 0.0
0.125521 -0.000527472 0.0
0 0 0.0
0.0461854 -8.79941e-05 0.0
0.189466 -0.00117612 0.0
0.211563 -0.00136059 0.0
0.240789 -0.0016519 0.0
0.228741 -0.001592 0.0
0.247906 -0.00180328 0.0
0.249156 -0.001687 0.0
0.243765 -0.00163389 0.0
0.233385 -0.00153246 0.0
0.249973 -0.00182857 0.0
0.157912 -0.000839249 0.0
0.218022 -0.00138729 0.0
0.203219 -0.00125551 0.0
0.185621 -0.00110422 0.0
0 0 0.0
0.0924668 -0.000358001 0.0
0.049217 -0.000108142 0.0
0.162471 -0.000980943 0.0
0.130178 -0.000679882 0.0
0.125223 -0.000589512 0.0
0.0878794 -0.000316192 0.0
0 0 0.0
0.0460115 -9.71516e-05 0.0
0.189728 -0.00130518 0.0
0.21177 -0.00150861 0.0
0.247948 -0.00199115 0.0
0.2289 -0.00176422 0.0
0.240893 -0.00182943 0.0
0.247039 -0.00180032 0.0
0.239111 -0.00171895 0.0
0.226195 -0.00158694 0.0
0.249958 -0.00201791 0.0
0.157644 -0.000923354 0.0
0.208302 -0.00140588 0.0
0.185376 -0.00121346 0.0
0 0 0.0
0.0494138 -0.000118436 0.0
0.0927748 -0.000397102 0.0
0.130469 -0.000742504 0.0
0.190017 -0.00144875 0.0
0.162795 -0.00108971 0.0
0.124935 -0.000648659 0.0
0.0876131 -0.000349242 0.0
0.0458256 -0.000107618 0.0
0 0 0.0
0.229043 -0.00192322 0.0
0.212 -0.0016773 0.0
0.247987 -0.0021547 0.0
0.241 -0.00202927 0.0
0.226022 -0.0017425 0.0
0.246968 -0.00198302 0.0
0.238985 -0.00189078 0.0
0.249943 -0.00222685 0.0
0.185112 -0.00132901 0.0
0.157291 -0.00102952 0.0
0.208011 -0.00158536 0.0
0 0 0.0
0.0496424 -0.000132084 0.0
0.0931557 -0.000446405 0.0
0.130846 -0.000825922 0.0
0.190254 -0.00157466 0.0
0.16323 -0.00124622 0.0
0.124623 -0.000711361 0.0
0.0872925 -0.000388212 0.0
0.0456226 -0.000118512 0.0
0 0 0.0
0.124279 -0.000779861 0.0
0.229196 -0.0020916 0.0
0.212332 -0.00193302 0.0
0.241163 -0.00234898 0.0
0.248023 -0.00232838 0.0
0.225759 -0.00197268 0.0
0.238849 -0.00207625 0.0
0.24689 -0.00218552 0.0
0.249916 -0.00245781 0.0
0.184822 -0.00145294 0.0
0.156965 -0.00112933 0.0
0.207763 -0.00173879 0.0
0 0 0.0
0.049897 -0.000147051 0.0
0.0935459 -0.000500139 0.0
0.131269 -0.000925434 0.0
0.190604 -0.00175637 0.0
0.163644 -0.00139775 0.0
0.0453945 -0.000132002 0.0
0.0869666 -0.000427608 0.0
0 0 0.0
0.123965 -0.000837518 0.0
0.229398 -0.00233179 0.0
0.21262 -0.00215964 0.0
0.241289 -0.00260823 0.0
0.248066 -0.00258084 0.0
0.225573 -0.00212816 0.0
0.238696 -0.00227833 0.0
0.249883 -0.00271425 0.0
0.246751 -0.00251248 0.0
0.184583 -0.00154805 0.0
0.156609 -0.00123099 0.0
0.207488 -0.00189753 0.0
0 0 0.0
0.0501803 -0.000164755 0.0
0.0939827 -0.000562274 0.0
0.131817 -0.00105924 0.0
0.191088 -0.00202501 0.0
0.212933 -0.00242053 0.0
0.164101 -0.00157551 0.0
0.0451616 -0.000144072 0.0
0.0866153 -0.000467286 0.0
0 0 0.0
0.123566 -0.00090851 0.0
0.229693 -0.00269662 0.0
0.241393 -0.00284402 0.0
0.248109 -0.00286101 0.0
0.249845 -0.00292691 0.0
0.225374 -0.00228787 0.0
0.238512 -0.00250251 0.0
0.246632 -0.00276402 0.0
0.156223 -0.00133648 0.0
0.184241 -0.0016834 0.0
0.207181 -0.00206603 0.0
0 0 0.0
0.0505231 -0.000188039 0.0
0.094482 -0.00064074 0.0
0.132363 -0.00120443 0.0
0.191416 -0.00221752 0.0
0.213272 -0.00271253 0.0
0.164615 -0.00178266 0.0
0.0448929 -0.000156859 0.0
0.0862334 -0.000507538 0.0
0 0 0.0
0.155891 -0.00141451 0.0
0.0858249 -0.000544687 0.0
0.123069 -0.000988065 0.0
0.229932 -0.00302996 0.0
0.241496 -0.0030909 0.0
0.248155 -0.00332401 0.0
0.249805 -0.00314999 0.0
0.246526 -0.002978 0.0
0.225104 -0.00249398 0.0
0.238223 -0.00284325 0.0
0.183765 -0.00185534 0.0
0.206895 -0.00222113 0.0
0.230144 -0.0033207 0.0
0 0 0.0
0.0508941 -0.000215084 0.0
0.13298 -0.0013781 0.0
0.0950495 -0.00073622 0.0
0.213647 -0.00305896 0.0
0.192009 -0.00258326 0.0
0.165187 -0.00202622 0.0
0.0445897 -0.000169209 0.0
0 0 0.0
0.183448 -0.00196472 0.0
0.155441 -0.00151822 0.0
0.122598 -0.00105769 0.0
0.0442722 -0.000184104 0.0
0.0853845 -0.000582548 0.0
0.241634 -0.00344754 0.0
0.24817 -0.00360746 0.0
0.249724 -0.00347957 0.0
0.249651 -0.0037541 0.0
0.246399 -0.00320329 0.0
0.224792 -0.00271772 0.0
0.237962 -0.00311146 0.0
0.206578 -0.0023705 0.0
0.230351 -0.00364756 0.0
0.0513024 -0.00024752 0.0
0 0 0.0
0.133568 -0.00154826 0.0
0.095697 -0.000847904 0.0
0.214046 -0.00345221 0.0
0.192406 -0.00284338 0.0
0.165829 -0.00231496 0.0
0 0 0.0
0.182993 -0.00210138 0.0
0.154851 -0.00163341 0.0
0.122178 -0.00110439 0.0
0.0439574 -0.000194886 0.0
0.0849205 -0.000616286 0.0
0.241812 -0.00402634 0.0
0.248179 -0.00390681 0.0
0.249555 -0.00404205 0.0
0.246119 -0.00366216 0.0
0.224445 -0.00294888 0.0
0.237674 -0.00339716 0.0
0.206036 -0.00261754 0.0
0.230631 -0.00410276 0.0
0 0 0.0
0.0517941 -0.000289487 0.0
0.134344 -0.00178661 0.0
0.0963715 -0.000971279 0.0
0.166544 -0.00264884 0.0
0.214479 -0.00390937 0.0
0.193129 -0.00333639 0.0
0 0 0.0
0 0 0.0
0.182484 -0.00224172 0.0
0.154312 -0.00172746 0.0
0.121651 -0.00116036 0.0
0.0844353 -0.000645871 0.0
0.0436083 -0.000204319 0.0
0.241933 -0.00450149 0.0
0.24816 -0.00434439 0.0
0.237402 -0.00364184 0.0
0.249401 -0.00446305 0.0
0.245863 -0.00402574 0.0
0.224041 -0.00319795 0.0
0.205551 -0.00281016 0.0
0.242016 -0.00493102 0.0
0.230899 -0.00461965 0.0
0.0523639 -0.000336687 0.0
0.0972216 -0.00112621 0.0
0.13523 -0.00207257 0.0
0.16718 -0.00296731 0.0
0.214944 -0.00442777 0.0
0.193602 -0.00369651 0.0
0 0 0.0
0 0 0.0
0.153851 -0.00178787 0.0
0.181779 -0.00240442 0.0
0.083982 -0.000664479 0.0
0.121009 -0.00121281 0.0
0.0432394 -0.000214478 0.0
0.248095 -0.00504808 0.0
0.24919 -0.00493384 0.0
0.205013 -0.00300567 0.0
0.237093 -0.00389367 0.0
0.245637 -0.00433014 0.0
0.223407 -0.00354731 0.0
0.242092 -0.00538135 0.0
0.231291 -0.00542792 0.0
0.21543 -0.00502677 0.0
0.0530741 -0.000397698 0.0
0.0982089 -0.00132125 0.0
0.136403 -0.00246223 0.0
0.16806 -0.00341018 0.0
0.194468 -0.00437239 0.0
0 0 0.0
0 0 0.0
0.153107 -0.001875 0.0
0.181139 -0.00253836 0.0
0.0834175 -0.000682966 0.0
0.120423 -0.00124913 0.0
0.0428485 -0.000221185 0.0
0.245371 -0.0046545 0.0
0.248929 -0.00544021 0.0
0.247983 -0.00562365 0.0
0.204404 -0.00320448 0.0
0.236654 -0.00423755 0.0
0.222848 -0.0038345 0.0
0.180439 -0.00266511 0.0
0.242169 -0.00629558 0.0
0 0 0.0
0.231549 -0.00613758 0.0
0.195232 -0.00501709 0.0
0.215938 -0.00570213 0.0
0.0538375 -0.000468536 0.0
0.137404 -0.00281292 0.0
0.0994872 -0.00158547 0.0
0.169243 -0.00406647 0.0
0 0 0.0
0 0 0.0
0 0 0.0
0 0 0.0
0 0 0.0
0.0424865 -0.000224374 0.0
0.119811 -0.0012794 0.0
0.152429 -0.00194344 0.0
0.0829353 -0.000696711 0.0
0.244965 -0.00509167 0.0
0.248593 -0.00600384 0.0
0.247835 -0.00625669 0.0
0.222327 -0.00406208 0.0
0.20371 -0.00340713 0.0
0.2359 -0.00475372 0.0
0.203058 -0.00358002 0.0
0.179858 -0.00275389 0.0
0.242163 -0.00705734 0.0
0.231807 -0.00691482 0.0
0 0 0.0
9.35188e-05 -3.98057e-05 0.0
0 0 0.0
-0.000306294 0.00163333 0.0
0.216476 -0.00648416 0.0
0.195855 -0.00555589 0.0
0.0548252 -0.000564666 0.0
0.138724 -0.00328178 0.0
0.10085 -0.00187539 0.0
0.170373 -0.00471537 0.0
0 0 0.0
0 0 0.0
0 0 0.0
-0.000221903 0.000832846 0.0
-7.8118e-06 -0.000134444 0.0
6.28819e-05 -8.09357e-05 0.0
0 0 0.0
0.0420924 -0.000229272 0.0
0.119273 -0.00129694 0.0
0.151703 -0.00200365 0.0
0.0823463 -0.000708746 0.0
0.244482 -0.00557808 0.0
0.248176 -0.0066195 0.0
0.247613 -0.00695126 0.0
0.221742 -0.00431006 0.0
0.235389 -0.0050851 0.0
0.202334 -0.00375112 0.0
0.17881 -0.00290248 0.0
0.242119 -0.00789244 0.0
0.23501 -0.00778299 0.0
0.225098 -0.00748951 0.0
0 0 0.0
0.000151968 -9.90705e-06 0.0
0 0 0.0
0 0 0.0
-0.00110089 0.00381688 0.0
-0.00103024 0.00242394 0.0
0.212349 -0.00704759 0.0
0.196726 -0.00637474 0.0
0.102278 -0.00218975 0.0
0.0558955 -0.000681638 0.0
0.140226 -0.00384733 0.0
0.171613 -0.00546958 0.0
0 0 0.0
-0.000333274 0.000342221 0.0
-0.000675699 0.00117546 0.0
-0.000175534 8.60696e-05 0.0
-0.000106424 0.000130788 0.0
0 0 0.0
0.0416949 -0.000233228 0.0
0.118621 -0.00131567 0.0
0.150933 -0.00205232 0.0
0.0817976 -0.000717363 0.0
0.243901 -0.00610007 0.0
0.247667 -0.00728758 0.0
0.247312 -0.00771531 0.0
0.220641 -0.00473916 0.0
0.23481 -0.00541903 0.0
0.201383 -0.0039695 0.0
0.150113 -0.00211394 0.0
0.17787 -0.00303073 0.0
0.24203 -0.00861729 0.0
0.232163 -0.0084355 0.0
0.217402 -0.00807985 0.0
0 0 0.0
-1.7481e-05 9.37246e-05 0.0
0 0 0.0
0 0 0.0
0 0 0.0
0 0 0.0
-0.00183157 0.00259714 0.0
-0.000319302 0.00336178 0.0
-0.00114552 0.00504089 0.0
-0.00264138 0.00665879 0.0
-0.0021817 0.00445312 0.0
0 0 0.0
-8.00274e-05 0.00530644 0.0
0.197887 -0.00759693 0.0
0.1727 -0.00618844 0.0
0 0 0.0
0.0573142 -0.000847297 0.0
0.104112 -0.00262669 0.0
0.142216 -0.00468405 0.0
0 0 0.0
0 0 0.0
-0.00105382 0.00118141 0.0
-0.000752111 0.000651281 0.0