# vtk DataFile Version 3.0
Mesh NS-CD Problem
ASCII
DATASET UNSTRUCTURED_GRID
POINTS 10839 float
-2 0.3 0.0
-2 0.4 0.0
-2 0.35 0.0
-2 0.45 0.0
-2 0.5 0.0
-2 0.55 0.0
-2 0 0.0
-2 0.05 0.0
-2 0.85 0.0
-2 0.9 0.0
-2 0.1 0.0
-2 0.15 0.0
-2 0.25 0.0
-2 0.2 0.0
-1.96653 0.266667 0.0
-1.96524 0.415385 0.0
-1.96485 0.315 0.0
-1.96348 0.363636 0.0
-1.96414 0.464286 0.0
-2 0.6 0.0
-1.96538 0.584615 0.0
-1.96538 0.538462 0.0
-1.94979 0 0.0
-1.96653 0.0666666 0.0
-1.93306 0.0333333 0.0
-2 0.8 0.0
-2 0.75 0.0
-2 0.7 0.0
-2 0.65 0.0
-1.96249 0.7375 0.0
-1.96666 0.833333 0.0
-2 1 0.0
-2 0.95 0.0
-1.96249 0.8875 0.0
-1.96666 0.933333 0.0
-1.96234 0.1125 0.0
-1.96653 0.166667 0.0
-1.93724 0.225 0.0
-1.92971 0.28 0.0
-1.93048 0.380769 0.0
-1.93048 0.423077 0.0
-1.89958 0.3375 0.0
-1.9292 0.484203 0.0
-1.92117 0.530907 0.0
-1.96363 0.636364 0.0
-1.93076 0.576923 0.0
-1.89958 0 0.0
-1.88703 0.0375 0.0
-1.90963 0.08 0.0
-1.86611 0.0666666 0.0
-1.93749 0.775 0.0
-1.93635 0.672727 0.0
-1.92999 0.72 0.0
-1.93332 0.866667 0.0
-1.92856 0.821429 0.0
-1.94999 1 0.0
-1.92499 0.9625 0.0
-1.92499 0.925 0.0
-1.89998 0.9 0.0
-1.89958 0.125 0.0
-1.92827 0.178571 0.0
-1.89958 0.233333 0.0
-1.89045 0.290909 0.0
-1.86096 0.311538 0.0
-1.89241 0.392857 0.0
-1.89334 0.448489 0.0
-1.85655 0.357143 0.0
-1.89614 0.653846 0.0
-1.89427 0.504121 0.0
-1.8952 0.559753 0.0
-1.89614 0.615385 0.0
-1.84937 0 0.0
-1.83264 0.0333333 0.0
-1.85655 0.107143 0.0
-1.81172 0.075 0.0
-1.89998 0.766667 0.0
-1.89089 0.709091 0.0
-1.87498 0.85 0.0
-1.85998 0.79 0.0
-1.88748 0.8125 0.0
-1.89998 1 0.0
-1.88748 0.9625 0.0
-1.86664 0.933333 0.0
-1.85712 0.892857 0.0
-1.87448 0.15 0.0
-1.86611 0.194444 0.0
-1.83264 0.133333 0.0
-1.83264 0.2625 0.0
-1.82068 0.321429 0.0
-1.85664 0.404762 0.0
-1.85674 0.452381 0.0
-1.85683 0.5 0.0
-1.81184 0.375 0.0
-1.85712 0.642857 0.0
-1.85693 0.547619 0.0
-1.85702 0.595238 0.0
-1.79917 0 0.0
-1.78482 0.0357143 0.0
-1.79917 0.116667 0.0
-1.76569 0.0666666 0.0
-1.85452 0.745455 0.0
-1.82689 0.692308 0.0
-1.81815 0.781818 0.0
-1.82497 0.825 0.0
-1.84997 1 0.0
-1.8333 0.958333 0.0
-1.81247 0.8875 0.0
-1.81247 0.925 0.0
-1.81742 0.218182 0.0
-1.82427 0.175 0.0
-1.77634 0.145455 0.0
-1.79144 0.242308 0.0
-1.78482 0.285714 0.0
-1.77469 0.332653 0.0
-1.81215 0.529762 0.0
-1.81194 0.422619 0.0
-1.81203 0.470238 0.0
-1.76714 0.392857 0.0
-1.81234 0.625 0.0
-1.79732 0.571429 0.0
-1.74896 0 0.0
-1.73222 0.0333333 0.0
-1.75398 0.105 0.0
-1.71883 0.07 0.0
-1.79227 0.730769 0.0
-1.78007 0.679121 0.0
-1.75765 0.769231 0.0
-1.78178 0.818182 0.0
-1.78996 0.86 0.0
-1.79996 1 0.0
-1.78568 0.964286 0.0
-1.76663 0.922222 0.0
-1.76569 0.1875 0.0
-1.73222 0.15 0.0
-1.74896 0.25 0.0
-1.73714 0.304762 0.0
-1.76743 0.537202 0.0
-1.72869 0.343878 0.0
-1.76732 0.485119 0.0
-1.76723 0.440476 0.0
-1.72243 0.410714 0.0
-1.76757 0.607143 0.0
-1.69875 0 0.0
-1.68369 0.035 0.0
-1.69875 0.1125 0.0
-1.66528 0.075 0.0
-1.74341 0.708974 0.0
-1.73324 0.665934 0.0
-1.70441 0.74478 0.0
-1.71423 0.785714 0.0
-1.72303 0.826923 0.0
-1.74541 0.854545 0.0
-1.74541 0.890909 0.0
-1.74996 1 0.0
-1.73745 0.9625 0.0
-1.71359 0.927273 0.0
-1.68716 0.153846 0.0
-1.7131 0.214286 0.0
-1.70725 0.275 0.0
-1.69712 0.321939 0.0
-1.72279 0.589286 0.0
-1.72261 0.5 0.0
-1.7227 0.544643 0.0
-1.6827 0.355102 0.0
-1.67773 0.428571 0.0
-1.70763 0.464286 0.0
-1.70369 0.62449 0.0
-1.64854 0 0.0
-1.63181 0.0375 0.0
-1.64137 0.142857 0.0
-1.61764 0.0769231 0.0
-1.69458 0.703846 0.0
-1.67471 0.657437 0.0
-1.66143 0.727637 0.0
-1.67125 0.768571 0.0
-1.67851 0.821429 0.0
-1.68841 0.861538 0.0
-1.70904 0.890909 0.0
-1.69995 1 0.0
-1.68176 0.963636 0.0
-1.67267 0.927273 0.0
-1.65427 0.187143 0.0
-1.66718 0.231429 0.0
-1.66554 0.3 0.0
-1.67802 0.571429 0.0
-1.67792 0.523809 0.0
-1.6367 0.366327 0.0
-1.63682 0.423469 0.0
-1.62568 0.502976 0.0
-1.6629 0.470238 0.0
-1.65254 0.618367 0.0
-1.6059 0.307143 0.0
-1.59833 0 0.0
-1.58288 0.0384615 0.0
-1.60563 0.169643 0.0
-1.58179 0.112271 0.0
-1.56964 0.0714286 0.0
-1.64574 0.690385 0.0
-1.62827 0.751429 0.0
-1.63371 0.791071 0.0
-1.64279 0.857143 0.0
-1.65378 0.896154 0.0
-1.64994 1 0.0
-1.6363 0.963636 0.0
-1.61916 0.930769 0.0
-1.61345 0.209107 0.0
-1.62126 0.248571 0.0
-1.56989 0.196429 0.0
-1.63324 0.553571 0.0
-1.58846 0.535714 0.0
-1.59408 0.361905 0.0
-1.59161 0.402211 0.0
-1.58832 0.464286 0.0
-1.61504 0.598581 0.0
-1.59683 0.64359 0.0
-1.57899 0.274107 0.0
-1.56176 0.322381 0.0
-1.54812 0 0.0
-1.53378 0.0357143 0.0
-1.54593 0.147619 0.0
-1.53385 0.0732143 0.0
-1.53393 0.110714 0.0
-1.58522 0.704286 0.0
-1.58709 0.745 0.0
-1.58896 0.785714 0.0
-1.60695 0.830357 0.0
-1.60707 0.892857 0.0
-1.59993 1 0.0
-1.58454 0.965385 0.0
-1.57135 0.928571 0.0
-1.55209 0.241071 0.0
-1.5291 0.198214 0.0
-1.56936 0.570918 0.0
-1.54369 0.517857 0.0
-1.5464 0.380952 0.0
-1.54564 0.427721 0.0
-1.54488 0.47449 0.0
-1.55026 0.606122 0.0
-1.54222 0.677143 0.0
-1.52943 0.282857 0.0
-1.52143 0.33619 0.0
-1.49792 0 0.0
-1.49802 0.05 0.0
-1.49822 0.15 0.0
-1.49312 0.1 0.0
-1.5423 0.717143 0.0
-1.54419 0.767857 0.0
-1.54727 0.819048 0.0
-1.57122 0.861905 0.0
-1.53553 0.914286 0.0
-1.54992 1 0.0
-1.53563 0.964286 0.0
-1.49842 0.25 0.0
-1.48831 0.2 0.0
-1.5214 0.558929 0.0
-1.49891 0.5 0.0
-1.49871 0.4 0.0
-1.47631 0.45 0.0
-1.49911 0.6 0.0
-1.49921 0.65 0.0
-1.49931 0.7 0.0
-1.48111 0.35 0.0
-1.48351 0.3 0.0
-1.44771 0 0.0
-1.44782 0.05 0.0
-1.44804 0.15 0.0
-1.44793 0.1 0.0
-1.49941 0.75 0.0
-1.49951 0.8 0.0
-1.49981 0.95 0.0
-1.49961 0.85 0.0
-1.49971 0.9 0.0
-1.49991 1 0.0
-1.44826 0.25 0.0
-1.43815 0.2 0.0
-1.47151 0.55 0.0
-1.44881 0.5 0.0
-1.44859 0.4 0.0
-1.42619 0.45 0.0
-1.44913 0.65 0.0
-1.44902 0.6 0.0
-1.44935 0.75 0.0
-1.44924 0.7 0.0
-1.43972 0.35 0.0
-1.43336 0.3 0.0
-1.3975 0 0.0
-1.39762 0.05 0.0
-1.39786 0.15 0.0
-1.39274 0.1 0.0
-1.44957 0.85 0.0
-1.44946 0.8 0.0
-1.4523 0.95 0.0
-1.44968 0.9 0.0
-1.4499 1 0.0
-1.3981 0.25 0.0
-1.38798 0.2 0.0
-1.42141 0.55 0.0
-1.3987 0.5 0.0
-1.39834 0.35 0.0
-1.37845 0.4 0.0
-1.37607 0.45 0.0
-1.40784 0.65 0.0
-1.39894 0.6 0.0
-1.41185 0.75 0.0
-1.39918 0.7 0.0
-1.38322 0.3 0.0
-1.34729 0 0.0
-1.34492 0.05 0.0
-1.34018 0.15 0.0
-1.34255 0.1 0.0
-1.40707 0.85 0.0
-1.39941 0.8 0.0
-1.39977 0.95 0.0
-1.39965 0.9 0.0
-1.39989 1 0.0
-1.33781 0.2 0.0
-1.33544 0.25 0.0
-1.37131 0.55 0.0
-1.34859 0.5 0.0
-1.33833 0.4 0.0
-1.3307 0.35 0.0
-1.32595 0.45 0.0
-1.34885 0.6 0.0
-1.36655 0.65 0.0
-1.36179 0.75 0.0
-1.34911 0.7 0.0
-1.33307 0.3 0.0
-1.29708 0 0.0
-1.29722 0.05 0.0
-1.2975 0.15 0.0
-1.29236 0.1 0.0
-1.35703 0.85 0.0
-1.34937 0.8 0.0
-1.34988 1 0.0
-1.34962 0.9 0.0
-1.35226 0.95 0.0
-1.28528 0.25 0.0
-1.28764 0.2 0.0
-1.28931 0.35 0.0
-1.32121 0.55 0.0
-1.29848 0.5 0.0
-1.28709 0.45 0.0
-1.2982 0.4 0.0
-1.29876 0.6 0.0
-1.31647 0.65 0.0
-1.29918 0.75 0.0
-1.29904 0.7 0.0
-1.28292 0.3 0.0
-1.24687 0 0.0
-1.24702 0.05 0.0
-1.24717 0.1 0.0
-1.24732 0.15 0.0
-1.29946 0.85 0.0
-1.29932 0.8 0.0
-1.29987 1 0.0
-1.29974 0.95 0.0
-1.30462 0.9 0.0
-1.24762 0.25 0.0
-1.23747 0.2 0.0
-1.24792 0.35 0.0
-1.22807 0.4 0.0
-1.27111 0.55 0.0
-1.24837 0.5 0.0
-1.24822 0.45 0.0
-1.24867 0.6 0.0
-1.26639 0.65 0.0
-1.26167 0.75 0.0
-1.24897 0.7 0.0
-1.23277 0.3 0.0
-1.19667 0 0.0
-1.19683 0.05 0.0
-1.18964 0.15 0.0
-1.19198 0.1 0.0
-1.25695 0.85 0.0
-1.24927 0.8 0.0
-1.25223 0.95 0.0
-1.24987 1 0.0
-1.24957 0.9 0.0
-1.1873 0.2 0.0
-1.18496 0.25 0.0
-1.18028 0.35 0.0
-1.17794 0.4 0.0
-1.1981 0.45 0.0
-1.19842 0.55 0.0
-1.19826 0.5 0.0
-1.19858 0.6 0.0
-1.19874 0.65 0.0
-1.19906 0.75 0.0
-1.1989 0.7 0.0
-1.18262 0.3 0.0
-1.14646 0 0.0
-1.14663 0.05 0.0
-1.1418 0.1 0.0
-1.13713 0.2 0.0
-1.14697 0.15 0.0
-1.20691 0.85 0.0
-1.20926 0.8 0.0
-1.20221 0.95 0.0
-1.19986 1 0.0
-1.20456 0.9 0.0
-1.13997 0.3 0.0
-1.14731 0.25 0.0
-1.13781 0.4 0.0
-1.13014 0.35 0.0
-1.12548 0.45 0.0
-1.14815 0.5 0.0
-1.15962 0.55 0.0
-1.14849 0.6 0.0
-1.15745 0.65 0.0
-1.16155 0.75 0.0
-1.14917 0.8 0.0
-1.14883 0.7 0.0
-1.09625 0 0.0
-1.09661 0.1 0.0
-1.09393 0.05 0.0
-1.09697 0.2 0.0
-1.08929 0.15 0.0
-1.15687 0.85 0.0
-1.14985 1 0.0
-1.15219 0.95 0.0
-1.14951 0.9 0.0
-1.09733 0.3 0.0
-1.08465 0.25 0.0
-1.09769 0.4 0.0
-1.08 0.35 0.0
-1.08661 0.45 0.0
-1.09804 0.5 0.0
-1.12082 0.55 0.0
-1.10916 0.8 0.0
-1.10629 0.7 0.0
-1.0984 0.6 0.0
-1.11616 0.65 0.0
-1.11149 0.75 0.0
-1.04604 0 0.0
-1.04623 0.05 0.0
-1.04642 0.1 0.0
-1.0468 0.2 0.0
-1.03911 0.15 0.0
-1.09948 0.9 0.0
-1.0993 0.85 0.0
-1.09984 1 0.0
-1.09966 0.95 0.0
-1.04718 0.3 0.0
-1.03449 0.25 0.0
-1.04756 0.4 0.0
-1.02986 0.35 0.0
-1.04775 0.45 0.0
-1.04794 0.5 0.0
-1.04813 0.55 0.0
-1.05911 0.8 0.0
-1.04831 0.6 0.0
-1.06376 0.7 0.0
-1.0485 0.65 0.0
-1.04888 0.75 0.0
-0.995833 0 0.0
-0.991231 0.1 0.0
-0.996033 0.05 0.0
-0.986629 0.2 0.0
-0.98893 0.15 0.0
-1.05447 0.9 0.0
-1.04926 0.85 0.0
-1.04983 1 0.0
-1.04964 0.95 0.0
-0.984328 0.25 0.0
-0.99703 0.3 0.0
-0.997429 0.4 0.0
-0.997628 0.45 0.0
-0.979726 0.35 0.0
-0.997827 0.5 0.0
-0.998027 0.55 0.0
-0.998226 0.6 0.0
-0.961416 0.475 0.0
-1.00907 0.8 0.0
-0.998426 0.65 0.0
-0.998625 0.7 0.0
-1.01138 0.75 0.0
-0.945625 0 0.0
-0.946044 0.1 0.0
-0.943334 0.05 0.0
-0.946463 0.2 0.0
-0.938752 0.15 0.0
-1.00444 0.9 0.0
-1.00675 0.85 0.0
-0.999821 1 0.0
-1.00213 0.95 0.0
-0.93417 0.25 0.0
-0.946881 0.3 0.0
-0.9473 0.4 0.0
-0.929588 0.35 0.0
-0.925005 0.45 0.0
-0.960371 0.525 0.0
-0.959325 0.575 0.0
-0.958279 0.625 0.0
-0.922714 0.5 0.0
-0.959017 0.8 0.0
-0.957233 0.675 0.0
-0.952999 0.7125 0.0
-0.948766 0.75 0.0
-0.895417 0 0.0
-0.895855 0.1 0.0
-0.893136 0.05 0.0
-0.896294 0.2 0.0
-0.888573 0.15 0.0
-0.949184 0.85 0.0
-0.954415 0.9 0.0
-0.949812 1 0.0
-0.949603 0.95 0.0
-0.884011 0.25 0.0
-0.896733 0.3 0.0
-0.874887 0.45 0.0
-0.879449 0.35 0.0
-0.897171 0.4 0.0
-0.920423 0.55 0.0
-0.918132 0.6 0.0
-0.915841 0.65 0.0
-0.872606 0.5 0.0
-0.908968 0.8 0.0
-0.91355 0.7 0.0
-0.898707 0.75 0.0
-0.845208 0 0.0
-0.845438 0.05 0.0
-0.845667 0.1 0.0
-0.845896 0.15 0.0
-0.833853 0.25 0.0
-0.846126 0.2 0.0
-0.899146 0.85 0.0
-0.904386 0.9 0.0
-0.899584 0.95 0.0
-0.899804 1 0.0
-0.838062 0.35 0.0
[...]
POINT_DATA 10839
VECTORS Velocity float
0.21 0 0.0
0.24 0 0.0
0.2275 0 0.0
0.2475 0 0.0
0.25 0 0.0
0.2475 0 0.0
0 0 0.0
0.0475 0 0.0
0.1275 0 0.0
0.09 0 0.0
0.09 0 0.0
0.1275 0 0.0
0.1875 0 0.0
0.16 0 0.0
0.195557 -2.29491e-05 0.0
0.242841 -3.13563e-05 0.0
0.215776 -2.73363e-05 0.0
0.231406 -3.08323e-05 0.0
0.248725 -3.3392e-05 0.0
0.24 0 0.0
0.24284 -3.12843e-05 0.0
0.24852 -3.21561e-05 0.0
0 0 0.0
0.0622238 -3.97414e-06 0.0
0.0322267 -2.62513e-06 0.0
0.16 0 0.0
0.1875 0 0.0
0.21 0 0.0
0.2275 0 0.0
0.193592 -2.5758e-05 0.0
0.138887 -1.42681e-05 0.0
0 0 0.0
0.0475 0 0.0
0.0998416 -9.89248e-06 0.0
0.0622206 -4.01834e-06 0.0
0.0998461 -1.0339e-05 0.0
0.138891 -1.4398e-05 0.0
0.17438 -3.61637e-05 0.0
0.201605 -4.95976e-05 0.0
0.235787 -6.06276e-05 0.0
0.244085 -6.34558e-05 0.0
0.223601 -8.1301e-05 0.0
0.249751 -6.63097e-05 0.0
0.249044 -7.3902e-05 0.0
0.231404 -3.13334e-05 0.0
0.244081 -6.26989e-05 0.0
0 0 0.0
0.0361074 -5.08708e-06 0.0
0.0736121 -1.42448e-05 0.0
0.0622478 -1.56166e-05 0.0
0.17437 -3.5624e-05 0.0
0.220162 -4.95953e-05 0.0
0.201595 -4.96661e-05 0.0
0.115549 -2.13065e-05 0.0
0.146676 -3.30703e-05 0.0
0 0 0.0
0.0360877 -3.42275e-06 0.0
0.0693665 -1.11261e-05 0.0
0.0899842 -2.21255e-05 0.0
0.109391 -2.99696e-05 0.0
0.146691 -3.24371e-05 0.0
0.178901 -6.07173e-05 0.0
0.206293 -7.94954e-05 0.0
0.2145 -0.000107254 0.0
0.238527 -9.51369e-05 0.0
0.24735 -9.90939e-05 0.0
0.229606 -0.000121184 0.0
0.226324 -8.54318e-05 0.0
0.249983 -9.95886e-05 0.0
0.246426 -9.6873e-05 0.0
0.23668 -9.11747e-05 0.0
0 0 0.0
0.0322491 -5.75608e-06 0.0
0.0956951 -3.40567e-05 0.0
0.0694268 -2.56593e-05 0.0
0.178876 -5.97816e-05 0.0
0.206269 -8.00881e-05 0.0
0.127477 -4.60202e-05 0.0
0.165874 -7.57066e-05 0.0
0.152326 -5.41329e-05 0.0
0 0 0.0
0.0360803 -4.92642e-06 0.0
0.0621971 -1.54481e-05 0.0
0.0956315 -3.46913e-05 0.0
0.127523 -4.64731e-05 0.0
0.15666 -6.7627e-05 0.0
0.115599 -5.33973e-05 0.0
0.193625 -0.000111835 0.0
0.21814 -0.0001417 0.0
0.240939 -0.000129171 0.0
0.247737 -0.000133991 0.0
0.25 -0.000135462 0.0
0.234397 -0.00016418 0.0
0.229577 -0.000119496 0.0
0.247728 -0.000133691 0.0
0.24092 -0.000128936 0.0
0 0 0.0
0.0344848 -7.98327e-06 0.0
0.103118 -5.24924e-05 0.0
0.0622992 -2.60066e-05 0.0
0.189728 -9.49384e-05 0.0
0.21299 -0.000132864 0.0
0.170536 -0.000102856 0.0
0.144331 -7.62387e-05 0.0
0 0 0.0
0.0398997 -8.49718e-06 0.0
0.0997888 -4.76678e-05 0.0
0.0693237 -2.523e-05 0.0
0.170622 -0.000102997 0.0
0.144419 -7.78978e-05 0.0
0.124374 -7.90491e-05 0.0
0.183647 -0.000130398 0.0
0.20413 -0.000156285 0.0
0.222037 -0.000184196 0.0
0.249109 -0.000178096 0.0
0.244026 -0.000173325 0.0
0.249119 -0.000178106 0.0
0.23855 -0.000209379 0.0
0.234354 -0.000163201 0.0
0.244883 -0.000187808 0.0
0 0 0.0
0.0322883 -8.46224e-06 0.0
0.0940698 -5.52272e-05 0.0
0.0652119 -3.29589e-05 0.0
0.196698 -0.000142643 0.0
0.217873 -0.000175477 0.0
0.177441 -0.000144853 0.0
0.148693 -0.000100843 0.0
0.120332 -7.04655e-05 0.0
0 0 0.0
0.0343933 -8.05794e-06 0.0
0.0716481 -3.30397e-05 0.0
0.152421 -0.00011322 0.0
0.12761 -9.8348e-05 0.0
0.187575 -0.000162012 0.0
0.211948 -0.000202072 0.0
0.248606 -0.000221423 0.0
0.225683 -0.000229118 0.0
0.249782 -0.000223041 0.0
0.246473 -0.000219262 0.0
0.242063 -0.000256975 0.0
0.238491 -0.000208775 0.0
0 0 0.0
0.0338692 -1.06218e-05 0.0
0.0999867 -7.39568e-05 0.0
0.0695373 -4.39702e-05 0.0
0.206263 -0.000189084 0.0
0.222407 -0.000220632 0.0
0.189979 -0.000196657 0.0
0.168258 -0.000158611 0.0
0.143008 -0.000121471 0.0
0.124198 -8.94543e-05 0.0
0.0970887 -5.99721e-05 0.0
0 0 0.0
0.0360246 -1.02785e-05 0.0
0.0673206 -3.5445e-05 0.0
0.130328 -0.000119088 0.0
0.168478 -0.000159421 0.0
0.199469 -0.000208276 0.0
0.218375 -0.000244687 0.0
0.241993 -0.000257593 0.0
0.25 -0.000268959 0.0
0.247989 -0.000265804 0.0
0.229079 -0.000276338 0.0
0.244936 -0.000306539 0.0
0.24874 -0.000282379 0.0
0.234447 -0.000264047 0.0
0 0 0.0
0.0362256 -1.37149e-05 0.0
0.12265 -0.000122168 0.0
0.0712193 -5.20972e-05 0.0
0.208353 -0.000231718 0.0
0.225129 -0.000276148 0.0
0.198053 -0.000240797 0.0
0.177731 -0.00019916 0.0
0.146532 -0.000146592 0.0
0.119138 -0.000102188 0.0
0.0970572 -6.8118e-05 0.0
0 0 0.0
0.0349439 -1.15179e-05 0.0
0.067285 -3.99542e-05 0.0
0.152294 -0.000166901 0.0
0.178012 -0.000203926 0.0
0.210112 -0.000258306 0.0
0.244859 -0.000306453 0.0
0.24942 -0.000314861 0.0
0.232222 -0.000325659 0.0
0.244195 -0.000349252 0.0
0.249989 -0.000372984 0.0
0.249132 -0.000330996 0.0
0.235915 -0.00031684 0.0
0.212958 -0.000316143 0.0
0 0 0.0
0.0371526 -1.61787e-05 0.0
0.141101 -0.000170451 0.0
0.099946 -0.000102803 0.0
0.0665877 -5.08011e-05 0.0
0.213633 -0.000282505 0.0
0.186613 -0.000245853 0.0
0.165091 -0.000199856 0.0
0.122249 -0.000122776 0.0
0.0928742 -7.48146e-05 0.0
0 0 0.0
0.0349157 -1.28715e-05 0.0
0.0642361 -4.24635e-05 0.0
0.165589 -0.000213829 0.0
0.186961 -0.00025146 0.0
0.158114 -0.000223975 0.0
0.247092 -0.000358735 0.0
0.248692 -0.000412963 0.0
0.231048 -0.000366202 0.0
0.240523 -0.000390932 0.0
0.248756 -0.000412622 0.0
0.240205 -0.000365036 0.0
0.22926 -0.000358789 0.0
0.199175 -0.000309638 0.0
0.218628 -0.000370504 0.0
0 0 0.0
0.0346387 -1.58801e-05 0.0
0.126157 -0.000165805 0.0
0.0681643 -5.74699e-05 0.0
0.0988056 -0.000112076 0.0
0.208089 -0.000323771 0.0
0.189767 -0.000282079 0.0
0.168134 -0.000233916 0.0
0.140628 -0.000169115 0.0
0.0954192 -8.91359e-05 0.0
0 0 0.0
0.0332613 -1.31816e-05 0.0
0.0660678 -5.0614e-05 0.0
0.183214 -0.000292677 0.0
0.159251 -0.000250983 0.0
0.244901 -0.000425988 0.0
0.249661 -0.000468028 0.0
0.235957 -0.000429193 0.0
0.244856 -0.000453733 0.0
0.249377 -0.000466836 0.0
0.238624 -0.000431518 0.0
0.218427 -0.000389925 0.0
0.203096 -0.000361848 0.0
0.223364 -0.000424138 0.0
0 0 0.0
0.0477919 -3.17736e-05 0.0
0.127906 -0.000189301 0.0
0.0904075 -0.000105224 0.0
0.202616 -0.000348423 0.0
0.177976 -0.000286311 0.0
0.147898 -0.000214522 0.0
0.118731 -0.00014031 0.0
0.0780411 -7.47818e-05 0.0
0 0 0.0
0.0342416 -1.55393e-05 0.0
0.187821 -0.000347095 0.0
0.160388 -0.000279581 0.0
0.246454 -0.000487441 0.0
0.25 -0.000525537 0.0
0.240135 -0.00049617 0.0
0.247574 -0.000547375 0.0
0.239864 -0.000495753 0.0
0.227298 -0.000458915 0.0
0.209737 -0.000408089 0.0
0.227717 -0.000481863 0.0
0.210281 -0.000425435 0.0
0 0 0.0
0.0478527 -3.54458e-05 0.0
0.127998 -0.00021157 0.0
0.0904869 -0.000115767 0.0
0.18718 -0.000345216 0.0
0.159631 -0.000270282 0.0
0.047212 -3.11283e-05 0.0
0.127098 -0.00018662 0.0
0.089605 -0.000102926 0.0
0 0 0.0
0.187895 -0.000390534 0.0
0.160475 -0.00031326 0.0
0.247422 -0.000553675 0.0
0.249999 -0.000592786 0.0
0.240167 -0.000559992 0.0
0.247591 -0.000615999 0.0
0.227253 -0.00051732 0.0
0.239832 -0.000558891 0.0
0.187106 -0.000388284 0.0
0.209677 -0.000459703 0.0
0.227756 -0.000529485 0.0
0.210344 -0.000478731 0.0
0 0 0.0
0.0479197 -3.8893e-05 0.0
0.128101 -0.000235442 0.0
0.0905947 -0.00012991 0.0
0.127006 -0.000209312 0.0
0.159546 -0.00030359 0.0
0.0471553 -3.45204e-05 0.0
0.0895182 -0.00011446 0.0
0 0 0.0
0.187979 -0.000436577 0.0
0.160574 -0.000349533 0.0
0.247405 -0.000622106 0.0
0.249999 -0.000664767 0.0
0.227799 -0.000581308 0.0
0.240217 -0.000655819 0.0
0.247609 -0.000690028 0.0
0.227209 -0.000566892 0.0
0.239797 -0.000626706 0.0
0.187045 -0.000421425 0.0
0.209607 -0.000514794 0.0
0.210415 -0.00053565 0.0
0 0 0.0
0.0479982 -4.32591e-05 0.0
0.128235 -0.00026505 0.0
0.0907046 -0.000143562 0.0
0.12692 -0.000228781 0.0
0.15945 -0.000338337 0.0
0.0470864 -3.83354e-05 0.0
0.0894222 -0.000126396 0.0
0 0 0.0
0.160684 -0.000388028 0.0
0.188098 -0.000498272 0.0
0.247386 -0.000695482 0.0
0.249998 -0.000742053 0.0
0.24025 -0.000716584 0.0
0.227881 -0.000673076 0.0
0.24763 -0.000768568 0.0
0.239756 -0.000698988 0.0
0.227162 -0.000620942 0.0
0.186954 -0.000469164 0.0
0.20953 -0.000573382 0.0
0.210495 -0.000597177 0.0
0 0 0.0
0.0480773 -4.77169e-05 0.0
0.128346 -0.000289123 0.0
0.0908259 -0.00015845 0.0
0.126807 -0.000253299 0.0
0.159342 -0.000375863 0.0
0 0 0.0
0.0893148 -0.000139795 0.0
0.0470169 -4.21127e-05 0.0
0.188206 -0.000554536 0.0
0.160808 -0.000430366 0.0
0.227938 -0.000734263 0.0
0.247364 -0.00077503 0.0
0.249998 -0.000825761 0.0
0.247648 -0.00083478 0.0
0.240286 -0.000780113 0.0
0.239711 -0.000777301 0.0
0.227098 -0.000690963 0.0
0.186824 -0.000533547 0.0
0.209443 -0.000637402 0.0
0.210585 -0.000662923 0.0
0 0 0.0
0.0481673 -5.26085e-05 0.0
0.0909463 -0.000172709 0.0
0.128488 -0.000319083 0.0
0.126662 -0.000283791 0.0
0.159222 -0.000416129 0.0
0 0 0.0
0.0469336 -4.62939e-05 0.0
0.0892096 -0.000152136 0.0
0.188297 -0.000598329 0.0
0.160946 -0.000476323 0.0
0.227998 -0.000799953 0.0
0.240356 -0.000901796 0.0
0.247339 -0.000861256 0.0
0.249997 -0.00091593 0.0
0.247668 -0.000904443 0.0
0.23966 -0.000862019 0.0
0.227026 -0.000766891 0.0
0.186737 -0.00057602 0.0
0.209346 -0.000705612 0.0
0.210685 -0.000734904 0.0
0 0 0.0
0.0482676 -5.77605e-05 0.0
0.128672 -0.000358155 0.0
0.0911091 -0.000192965 0.0
0.126543 -0.000308415 0.0
0.159089 -0.000459665 0.0
0.0468504 -5.02446e-05 0.0
0 0 0.0
0.0890677 -0.000168724 0.0
0.161098 -0.000526354 0.0
0.188461 -0.000677616 0.0
0.228112 -0.000917083 0.0
0.240415 -0.000999817 0.0
0.247694 -0.0010024 0.0
0.247299 -0.000997012 0.0
0.249996 -0.00101558 0.0
0.239604 -0.000956001 0.0
0.226916 -0.000877811 0.0
0.186577 -0.000651624 0.0
0.209238 -0.000780944 0.0
0.210796 -0.000812687 0.0
0 0 0.0
0.0483769 -6.34163e-05 0.0
0.0912723 -0.000211747 0.0
0.161267 -0.000579432 0.0
0.128822 -0.000388509 0.0
0.12639 -0.000339387 0.0
0.158971 -0.000497026 0.0
0.0467539 -5.53978e-05 0.0
0 0 0.0
0.0889381 -0.000183805 0.0
0.210899 -0.000884773 0.0
0.188573 -0.00073137 0.0
0.240465 -0.0010825 0.0
0.228206 -0.00101607 0.0
0.24774 -0.00115725 0.0
0.249995 -0.00112263 0.0
0.247274 -0.00107777 0.0
0.239541 -0.00105638 0.0
0.226841 -0.000952859 0.0
0.186468 -0.000701412 0.0
0.158777 -0.000558545 0.0
0.209118 -0.000861532 0.0
0 0 0.0
0.0914359 -0.00023163 0.0
0.0485055 -7.05781e-05 0.0
0.161415 -0.000628053 0.0
0.129045 -0.000435979 0.0
0.12622 -0.00037349 0.0
0 0 0.0
0.0466482 -6.07333e-05 0.0
0.0887655 -0.000203611 0.0
0.211014 -0.000961142 0.0
0.188775 -0.000828804 0.0
0.240519 -0.00117137 0.0
0.22831 -0.0011229 0.0
0.247766 -0.00125219 0.0
0.249993 -0.00124058 0.0
0.247247 -0.00116637 0.0
0.158632 -0.000600936 0.0
0.209006 -0.000935765 0.0
0.23947 -0.00116502 0.0
0.226758 -0.00103443 0.0
0.186312 -0.000773384 0.0
0 0 0.0
0.0486323 -7.70632e-05 0.0
0.0916314 -0.000254813 0.0
0.161618 -0.000691798 0.0
0.129263 -0.000480916 0.0
0.0885911 -0.000222674 0.0
0.126004 -0.000416042 0.0
0 0 0.0
0.0465269 -6.69301e-05 0.0
0.211159 -0.00106049 0.0
0.188959 -0.000915057 0.0
0.240594 -0.00129284 0.0
0.228426 -0.00124003 0.0
0.247795 -0.00135358 0.0
0.249993 -0.00137049 0.0
0.24719 -0.00134288 0.0
0.158437 -0.00066038 0.0
0.239393 -0.00128601 0.0
0.208883 -0.00101371 0.0
0.226608 -0.00118133 0.0
0.186093 -0.000874564 0.0
0 0 0.0
0.0918715 -0.000283793 0.0
0.0487791 -8.49271e-05 0.0
0.161888 -0.000776979 0.0
0.129502 -0.00053035 0.0
0.0884203 -0.000241961 0.0
0.125794 -0.000457698 0.0
0 0 0.0
0.0463989 -7.34373e-05 0.0
0.18916 -0.00101062 0.0
0.211321 -0.00117049 0.0
0.240677 -0.00142803 0.0
0.247836 -0.00149111 0.0
0.228553 -0.00136789 0.0
0.24999 -0.00150953 0.0
0.247146 -0.001484 0.0
0.239308 -0.00141592 0.0
0.249553 -0.00161751 0.0
0.158219 -0.00072532 0.0
0.226481 -0.0013027 0.0
0.208674 -0.00114879 0.0
0.185947 -0.000939461 0.0
0 0 0.0
0.0920912 -0.000310482 0.0
0.0489514 -9.4765e-05 0.0
0.162089 -0.000841169 0.0
0.129766 -0.000584889 0.0
0.0882133 -0.00026497 0.0
0.125599 -0.000495586 0.0
0 0 0.0
0.046267 -8.01138e-05 0.0
0.189383 -0.00111472 0.0
0.2115 -0.00129154 0.0
0.240765 -0.00157337 0.0
0.228694 -0.00151048 0.0
0.247901 -0.00171957 0.0
0.249172 -0.0016174 0.0
0.243793 -0.00156964 0.0
0.233424 -0.00147397 0.0
0.249985 -0.00174925 0.0
0.157981 -0.000796351 0.0
0.218068 -0.00133397 0.0
0.203272 -0.0012054 0.0
0.18568 -0.00105635 0.0
0 0 0.0
0.0923545 -0.00034268 0.0
0.0491306 -0.000104113 0.0
0.162361 -0.000928366 0.0
0.130057 -0.000645949 0.0
0.12531 -0.000551202 0.0
0.0879855 -0.000290455 0.0
0 0 0.0
0.0461081 -8.7425e-05 0.0
0.189629 -0.00123026 0.0
0.211697 -0.00142498 0.0
0.247948 -0.00189375 0.0
0.228849 -0.00166592 0.0
0.240868 -0.00173615 0.0
0.247066 -0.00172727 0.0
0.23915 -0.0016531 0.0
0.226242 -0.00152782 0.0
0.249978 -0.0019274 0.0
0.157716 -0.000875332 0.0
0.208356 -0.00135212 0.0
0.185438 -0.00116195 0.0
0 0 0.0
0.0493195 -0.000114376 0.0
0.092646 -0.000379278 0.0
0.130329 -0.000702507 0.0
0.189899 -0.00135576 0.0
0.162662 -0.00102471 0.0
0.125031 -0.000604394 0.0
0.0877352 -0.000318375 0.0
0.0459401 -9.5712e-05 0.0
0 0 0.0
0.228989 -0.00180708 0.0
0.211915 -0.00157394 0.0
0.247992 -0.00204414 0.0
0.240976 -0.00191713 0.0
0.226077 -0.00168059 0.0
0.247004 -0.00190201 0.0
0.239033 -0.00181987 0.0
0.249975 -0.00212339 0.0
0.185176 -0.00127567 0.0
0.157366 -0.000977001 0.0
0.208071 -0.0015295 0.0
0 0 0.0
0.0495391 -0.000127214 0.0
0.0930033 -0.000423815 0.0
0.130678 -0.000775086 0.0
0.19012 -0.00146319 0.0
0.163063 -0.00115849 0.0
0.124726 -0.000661566 0.0
0.0874341 -0.000351608 0.0
0.0457582 -0.000104235 0.0
0 0 0.0
0.124388 -0.000726156 0.0
0.229139 -0.00195467 0.0
0.21223 -0.00179344 0.0
0.241146 -0.00220159 0.0
0.248037 -0.00220289 0.0
0.225826 -0.00191029 0.0
0.238909 -0.00200143 0.0
0.246939 -0.00209604 0.0
0.249964 -0.00233914 0.0
0.184885 -0.00140087 0.0
0.157039 -0.00107529 0.0
0.207828 -0.00168468 0.0
0 0 0.0
0.0497818 -0.000140769 0.0
0.0933649 -0.000469732 0.0
0.131064 -0.000857873 0.0
0.190443 -0.00161363 0.0
0.16344 -0.00128228 0.0
0.0455555 -0.000114984 0.0
0.0871281 -0.000385989 0.0
0 0 0.0
0.124078 -0.000783468 0.0
0.229339 -0.00216065 0.0
0.212504 -0.00198215 0.0
0.241283 -0.00242814 0.0
0.248096 -0.0024313 0.0
0.225651 -0.00206818 0.0
0.238772 -0.00220123 0.0
0.249956 -0.00257824 0.0
0.246829 -0.0024106 0.0
0.184645 -0.00150025 0.0
0.15668 -0.00118028 0.0
0.207558 -0.00185011 0.0
0 0 0.0
0.0500488 -0.000155621 0.0
0.0937623 -0.000519551 0.0
0.131555 -0.000962667 0.0
0.190888 -0.00182704 0.0
0.212802 -0.00219269 0.0
0.163851 -0.00142106 0.0
0.0453491 -0.000125017 0.0
0.0867964 -0.000422216 0.0
0 0 0.0
0.123678 -0.000858544 0.0
0.229637 -0.00246539 0.0
0.241401 -0.00263108 0.0
0.248163 -0.0026823 0.0
0.249944 -0.00277572 0.0
0.225466 -0.00223444 0.0
0.238612 -0.00242502 0.0
0.24674 -0.00265414 0.0
0.156285 -0.00129628 0.0
0.184301 -0.00164719 0.0
0.207259 -0.00203179 0.0
0 0 0.0
0.050365 -0.000174591 0.0
0.0942067 -0.000578481 0.0
0.132036 -0.00107032 0.0
0.191189 -0.00197439 0.0
0.213128 -0.0024218 0.0
0.164308 -0.00157531 0.0
0.0451103 -0.000136256 0.0
0.0864317 -0.000461941 0.0
0 0 0.0
0.155942 -0.00139024 0.0
0.0860338 -0.000503303 0.0
0.123171 -0.000952213 0.0
0.229886 -0.00273612 0.0
0.241524 -0.00284065 0.0
0.248265 -0.00309177 0.0
0.249936 -0.00298272 0.0
0.246666 -0.00286156 0.0
0.225219 -0.00245373 0.0
0.238369 -0.00277218 0.0
0.183819 -0.00184729 0.0
0.206982 -0.0022051 0.0
0.230109 -0.00296649 0.0
0 0 0.0
0.0506992 -0.000194694 0.0
0.132568 -0.00119147 0.0
0.094699 -0.000646005 0.0
0.213491 -0.00268513 0.0
0.191729 -0.00224299 0.0
0.164811 -0.0017482 0.0
0.044838 -0.000148868 0.0
0 0 0.0
0.183499 -0.00198354 0.0
0.155474 -0.00152466 0.0
0.12268 -0.0010445 0.0
0.0445488 -0.00016353 0.0
0.0855948 -0.000551509 0.0
0.241697 -0.00313922 0.0
0.248325 -0.00333945 0.0
0.249913 -0.00328744 0.0
0.249897 -0.00353995 0.0
0.24658 -0.00308169 0.0
0.224939 -0.00269819 0.0
0.238161 -0.00305066 0.0
0.206679 -0.00238136 0.0
0.230341 -0.00322109 0.0
0.0510559 -0.000218005 0.0
0 0 0.0
0.133064 -0.00130383 0.0
0.0952436 -0.000720393 0.0
0.213885 -0.00297548 0.0
0.192092 -0.00242781 0.0
0.165368 -0.00194485 0.0
0 0 0.0
0.183039 -0.00216936 0.0
0.154851 -0.00169761 0.0
0.12223 -0.00112213 0.0
0.0442542 -0.000177518 0.0
0.0851175 -0.000602107 0.0
0.241953 -0.00361274 0.0
0.248388 -0.0035989 0.0
0.249873 -0.00380509 0.0
0.246404 -0.00353294 0.0
0.224637 -0.00296081 0.0
0.237941 -0.0033542 0.0
0.206166 -0.00268808 0.0
0.230658 -0.0035693 0.0
0 0 0.0
0.0514712 -0.000245951 0.0
0.133705 -0.00145593 0.0
0.0957935 -0.00079939 0.0
0.165981 -0.00216274 0.0
0.214318 -0.00330473 0.0
0.192751 -0.00276536 0.0
0 0 0.0
0 0 0.0
0.182528 -0.00237752 0.0
0.154274 -0.00186068 0.0
0.121652 -0.00122773 0.0
0.0845958 -0.000656784 0.0
0.0439154 -0.00019267 0.0
0.242157 -0.00399451 0.0
0.248465 -0.00397392 0.0
0.237741 -0.00361637 0.0
0.249838 -0.00419008 0.0
0.246257 -0.00389253 0.0
0.224296 -0.00325313 0.0
0.205718 -0.00294524 0.0
0.242325 -0.00433393 0.0
0.230987 -0.00395632 0.0
0.051933 -0.000274913 0.0
0.0964608 -0.000891926 0.0
0.134421 -0.00163344 0.0
0.166521 -0.00236648 0.0
0.214793 -0.0036694 0.0
0.193187 -0.00300827 0.0
0 0 0.0
0 0 0.0
0.153775 -0.00199108 0.0
0.181821 -0.00265441 0.0
0.0840836 -0.000707082 0.0
0.12092 -0.00135637 0.0
0.0435448 -0.000210736 0.0
0.248589 -0.00457138 0.0
0.249785 -0.00461894 0.0
0.20523 -0.00322497 0.0
0.237522 -0.00389178 0.0
0.246133 -0.00419494 0.0
0.223779 -0.00368223 0.0
0.242507 -0.00468754 0.0
0.231493 -0.00455003 0.0
0.215304 -0.00408336 0.0
0.0524861 -0.000312287 0.0
0.0972134 -0.00100836 0.0
0.13534 -0.00186993 0.0
0.167259 -0.00264171 0.0
0.19398 -0.00345218 0.0
0 0 0.0
0 0 0.0
0.152954 -0.00220873 0.0
0.181189 -0.00290571 0.0
0.0834034 -0.000776904 0.0
0.120219 -0.00147544 0.0
0.0431254 -0.000228102 0.0
0.245992 -0.00451722 0.0
0.249723 -0.00507952 0.0
0.248662 -0.00505198 0.0
0.204692 -0.00352587 0.0
0.237226 -0.00427331 0.0
0.223345 -0.0040449 0.0
0.180496 -0.0031724 0.0
0.242829 -0.00539269 0.0
0 0 0.0
0.231878 -0.00506481 0.0
0.194687 -0.00387028 0.0
0.215855 -0.00454502 0.0
0.0530629 -0.000356752 0.0
0.136106 -0.00208182 0.0
0.0981565 -0.00116972 0.0
0.16824 -0.0030525 0.0
0 0 0.0
0 0 0.0
0 0 0.0
0 0 0.0
0 0 0.0
0.0427118 -0.000244648 0.0
0.119449 -0.00160743 0.0
0.152195 -0.00240983 0.0
0.0827967 -0.000837457 0.0
0.245786 -0.00495433 0.0
0.249639 -0.00558795 0.0
0.248739 -0.00557805 0.0
0.222949 -0.0043482 0.0
0.204092 -0.00385188 0.0
0.236737 -0.00485453 0.0
0.203541 -0.0041462 0.0
0.179931 -0.00337942 0.0
0.243061 -0.00597487 0.0
0.232295 -0.00562237 0.0
0 0 0.0
7.44045e-05 -3.71973e-05 0.0
0 0 0.0
-0.000115785 0.000199201 0.0
0.216453 -0.00507588 0.0
0.195264 -0.00421897 0.0
0.0537831 -0.000416595 0.0
0.137097 -0.00236484 0.0
0.099134 -0.00134942 0.0
0.169166 -0.0034608 0.0
0 0 0.0
0 0 0.0
0 0 0.0
-6.74496e-05 -6.51627e-05 0.0
3.62188e-05 -0.000181238 0.0
0.000135781 -0.00014861 0.0
0 0 0.0
0.0422376 -0.000265894 0.0
0.118747 -0.00172155 0.0
0.151366 -0.00261998 0.0
0.0819927 -0.000913344 0.0
0.245555 -0.00544118 0.0
0.249529 -0.00613943 0.0
0.248801 -0.00614831 0.0
0.222522 -0.00467737 0.0
0.236427 -0.00522888 0.0
0.202938 -0.00445001 0.0
0.178905 -0.00374772 0.0
0.243301 -0.00660727 0.0
0.235816 -0.0063104 0.0
0.225463 -0.00589414 0.0
0 0 0.0
0.000194225 -4.89059e-05 0.0
0 0 0.0
0 0 0.0
-0.000457031 0.00087809 0.0
-0.000349212 0.000313232 0.0
0.212226 -0.00539455 0.0
0.196072 -0.00475292 0.0
0.100134 -0.00154789 0.0
0.0545497 -0.000495945 0.0
0.138206 -0.00271839 0.0
0.170167 -0.00394089 0.0
0 0 0.0
-1.60477e-05 -0.00025543 0.0
-0.000163743 -8.11408e-05 0.0
9.4639e-05 -0.000240432 0.0
0.000232901 -0.000126015 0.0
0 0 0.0
0.0417268 -0.000287188 0.0
0.117852 -0.0018638 0.0
0.150465 -0.00283563 0.0
0.0811925 -0.000987568 0.0
0.245282 -0.00596092 0.0
0.249396 -0.00673481 0.0
0.248846 -0.00677006 0.0
0.221737 -0.00526418 0.0
0.236077 -0.00561117 0.0
0.202165 -0.00483824 0.0
0.149477 -0.00307618 0.0
0.177992 -0.00407007 0.0
0.243485 -0.00715011 0.0
0.233007 -0.00670254 0.0
0.217538 -0.00615916 0.0
0 0 0.0
0.000293815 -2.28344e-05 0.0
0 0 0.0
0 0 0.0
0 0 0.0
0 0 0.0
-0.000535617 0.000380504 0.0
-0.000162764 0.000981697 0.0
-0.000530952 0.00142906 0.0
-0.00117029 0.00203389 0.0
-0.000837338 0.00107034 0.0
0 0 0.0
-0.000114249 0.00244013 0.0
0.19715 -0.00556049 0.0
0.171029 -0.00441034 0.0
0 0 0.0
0.0555468 -0.000613758 0.0
0.101395 -0.00183441 0.0
0.139639 -0.00327416 0.0
0 0 0.0
0 0 0.0
-0.00016268 -4.89078e-05 0.0