# vtk DataFile Version 3.0
Mesh NS-CD Problem
ASCII
DATASET UNSTRUCTURED_GRID
POINTS 10839 float
-2 0.3 0.0
-2 0.4 0.0
-2 0.35 0.0
-2 0.45 0.0
-2 0.5 0.0
-2 0.55 0.0
-2 0 0.0
-2 0.05 0.0
-2 0.85 0.0
-2 0.9 0.0
-2 0.1 0.0
-2 0.15 0.0
-2 0.25 0.0
-2 0.2 0.0
-1.96653 0.266667 0.0
-1.96524 0.415385 0.0
-1.96485 0.315 0.0
-1.96348 0.363636 0.0
-1.96414 0.464286 0.0
-2 0.6 0.0
-1.96538 0.584615 0.0
-1.96538 0.538462 0.0
-1.94979 0 0.0
-1.96653 0.0666666 0.0
-1.93306 0.0333333 0.0
-2 0.8 0.0
-2 0.75 0.0
-2 0.7 0.0
-2 0.65 0.0
-1.96249 0.7375 0.0
-1.96666 0.833333 0.0
-2 1 0.0
-2 0.95 0.0
-1.96249 0.8875 0.0
-1.96666 0.933333 0.0
-1.96234 0.1125 0.0
-1.96653 0.166667 0.0
-1.93724 0.225 0.0
-1.92971 0.28 0.0
-1.93048 0.380769 0.0
-1.93048 0.423077 0.0
-1.89958 0.3375 0.0
-1.9292 0.484203 0.0
-1.92117 0.530907 0.0
-1.96363 0.636364 0.0
-1.93076 0.576923 0.0
-1.89958 0 0.0
-1.88703 0.0375 0.0
-1.90963 0.08 0.0
-1.86611 0.0666666 0.0
-1.93749 0.775 0.0
-1.93635 0.672727 0.0
-1.92999 0.72 0.0
-1.93332 0.866667 0.0
-1.92856 0.821429 0.0
-1.94999 1 0.0
-1.92499 0.9625 0.0
-1.92499 0.925 0.0
-1.89998 0.9 0.0
-1.89958 0.125 0.0
-1.92827 0.178571 0.0
-1.89958 0.233333 0.0
-1.89045 0.290909 0.0
-1.86096 0.311538 0.0
-1.89241 0.392857 0.0
-1.89334 0.448489 0.0
-1.85655 0.357143 0.0
-1.89614 0.653846 0.0
-1.89427 0.504121 0.0
-1.8952 0.559753 0.0
-1.89614 0.615385 0.0
-1.84937 0 0.0
-1.83264 0.0333333 0.0
-1.85655 0.107143 0.0
-1.81172 0.075 0.0
-1.89998 0.766667 0.0
-1.89089 0.709091 0.0
-1.87498 0.85 0.0
-1.85998 0.79 0.0
-1.88748 0.8125 0.0
-1.89998 1 0.0
-1.88748 0.9625 0.0
-1.86664 0.933333 0.0
-1.85712 0.892857 0.0
-1.87448 0.15 0.0
-1.86611 0.194444 0.0
-1.83264 0.133333 0.0
-1.83264 0.2625 0.0
-1.82068 0.321429 0.0
-1.85664 0.404762 0.0
-1.85674 0.452381 0.0
-1.85683 0.5 0.0
-1.81184 0.375 0.0
-1.85712 0.642857 0.0
-1.85693 0.547619 0.0
-1.85702 0.595238 0.0
-1.79917 0 0.0
-1.78482 0.0357143 0.0
-1.79917 0.116667 0.0
-1.76569 0.0666666 0.0
-1.85452 0.745455 0.0
-1.82689 0.692308 0.0
-1.81815 0.781818 0.0
-1.82497 0.825 0.0
-1.84997 1 0.0
-1.8333 0.958333 0.0
-1.81247 0.8875 0.0
-1.81247 0.925 0.0
-1.81742 0.218182 0.0
-1.82427 0.175 0.0
-1.77634 0.145455 0.0
-1.79144 0.242308 0.0
-1.78482 0.285714 0.0
-1.77469 0.332653 0.0
-1.81215 0.529762 0.0
-1.81194 0.422619 0.0
-1.81203 0.470238 0.0
-1.76714 0.392857 0.0
-1.81234 0.625 0.0
-1.79732 0.571429 0.0
-1.74896 0 0.0
-1.73222 0.0333333 0.0
-1.75398 0.105 0.0
-1.71883 0.07 0.0
-1.79227 0.730769 0.0
-1.78007 0.679121 0.0
-1.75765 0.769231 0.0
-1.78178 0.818182 0.0
-1.78996 0.86 0.0
-1.79996 1 0.0
-1.78568 0.964286 0.0
-1.76663 0.922222 0.0
-1.76569 0.1875 0.0
-1.73222 0.15 0.0
-1.74896 0.25 0.0
-1.73714 0.304762 0.0
-1.76743 0.537202 0.0
-1.72869 0.343878 0.0
-1.76732 0.485119 0.0
-1.76723 0.440476 0.0
-1.72243 0.410714 0.0
-1.76757 0.607143 0.0
-1.69875 0 0.0
-1.68369 0.035 0.0
-1.69875 0.1125 0.0
-1.66528 0.075 0.0
-1.74341 0.708974 0.0
-1.73324 0.665934 0.0
-1.70441 0.74478 0.0
-1.71423 0.785714 0.0
-1.72303 0.826923 0.0
-1.74541 0.854545 0.0
-1.74541 0.890909 0.0
-1.74996 1 0.0
-1.73745 0.9625 0.0
-1.71359 0.927273 0.0
-1.68716 0.153846 0.0
-1.7131 0.214286 0.0
-1.70725 0.275 0.0
-1.69712 0.321939 0.0
-1.72279 0.589286 0.0
-1.72261 0.5 0.0
-1.7227 0.544643 0.0
-1.6827 0.355102 0.0
-1.67773 0.428571 0.0
-1.70763 0.464286 0.0
-1.70369 0.62449 0.0
-1.64854 0 0.0
-1.63181 0.0375 0.0
-1.64137 0.142857 0.0
-1.61764 0.0769231 0.0
-1.69458 0.703846 0.0
-1.67471 0.657437 0.0
-1.66143 0.727637 0.0
-1.67125 0.768571 0.0
-1.67851 0.821429 0.0
-1.68841 0.861538 0.0
-1.70904 0.890909 0.0
-1.69995 1 0.0
-1.68176 0.963636 0.0
-1.67267 0.927273 0.0
-1.65427 0.187143 0.0
-1.66718 0.231429 0.0
-1.66554 0.3 0.0
-1.67802 0.571429 0.0
-1.67792 0.523809 0.0
-1.6367 0.366327 0.0
-1.63682 0.423469 0.0
-1.62568 0.502976 0.0
-1.6629 0.470238 0.0
-1.65254 0.618367 0.0
-1.6059 0.307143 0.0
-1.59833 0 0.0
-1.58288 0.0384615 0.0
-1.60563 0.169643 0.0
-1.58179 0.112271 0.0
-1.56964 0.0714286 0.0
-1.64574 0.690385 0.0
-1.62827 0.751429 0.0
-1.63371 0.791071 0.0
-1.64279 0.857143 0.0
-1.65378 0.896154 0.0
-1.64994 1 0.0
-1.6363 0.963636 0.0
-1.61916 0.930769 0.0
-1.61345 0.209107 0.0
-1.62126 0.248571 0.0
-1.56989 0.196429 0.0
-1.63324 0.553571 0.0
-1.58846 0.535714 0.0
-1.59408 0.361905 0.0
-1.59161 0.402211 0.0
-1.58832 0.464286 0.0
-1.61504 0.598581 0.0
-1.59683 0.64359 0.0
-1.57899 0.274107 0.0
-1.56176 0.322381 0.0
-1.54812 0 0.0
-1.53378 0.0357143 0.0
-1.54593 0.147619 0.0
-1.53385 0.0732143 0.0
-1.53393 0.110714 0.0
-1.58522 0.704286 0.0
-1.58709 0.745 0.0
-1.58896 0.785714 0.0
-1.60695 0.830357 0.0
-1.60707 0.892857 0.0
-1.59993 1 0.0
-1.58454 0.965385 0.0
-1.57135 0.928571 0.0
-1.55209 0.241071 0.0
-1.5291 0.198214 0.0
-1.56936 0.570918 0.0
-1.54369 0.517857 0.0
-1.5464 0.380952 0.0
-1.54564 0.427721 0.0
-1.54488 0.47449 0.0
-1.55026 0.606122 0.0
-1.54222 0.677143 0.0
-1.52943 0.282857 0.0
-1.52143 0.33619 0.0
-1.49792 0 0.0
-1.49802 0.05 0.0
-1.49822 0.15 0.0
-1.49312 0.1 0.0
-1.5423 0.717143 0.0
-1.54419 0.767857 0.0
-1.54727 0.819048 0.0
-1.57122 0.861905 0.0
-1.53553 0.914286 0.0
-1.54992 1 0.0
-1.53563 0.964286 0.0
-1.49842 0.25 0.0
-1.48831 0.2 0.0
-1.5214 0.558929 0.0
-1.49891 0.5 0.0
-1.49871 0.4 0.0
-1.47631 0.45 0.0
-1.49911 0.6 0.0
-1.49921 0.65 0.0
-1.49931 0.7 0.0
-1.48111 0.35 0.0
-1.48351 0.3 0.0
-1.44771 0 0.0
-1.44782 0.05 0.0
-1.44804 0.15 0.0
-1.44793 0.1 0.0
-1.49941 0.75 0.0
-1.49951 0.8 0.0
-1.49981 0.95 0.0
-1.49961 0.85 0.0
-1.49971 0.9 0.0
-1.49991 1 0.0
-1.44826 0.25 0.0
-1.43815 0.2 0.0
-1.47151 0.55 0.0
-1.44881 0.5 0.0
-1.44859 0.4 0.0
-1.42619 0.45 0.0
-1.44913 0.65 0.0
-1.44902 0.6 0.0
-1.44935 0.75 0.0
-1.44924 0.7 0.0
-1.43972 0.35 0.0
-1.43336 0.3 0.0
-1.3975 0 0.0
-1.39762 0.05 0.0
-1.39786 0.15 0.0
-1.39274 0.1 0.0
-1.44957 0.85 0.0
-1.44946 0.8 0.0
-1.4523 0.95 0.0
-1.44968 0.9 0.0
-1.4499 1 0.0
-1.3981 0.25 0.0
-1.38798 0.2 0.0
-1.42141 0.55 0.0
-1.3987 0.5 0.0
-1.39834 0.35 0.0
-1.37845 0.4 0.0
-1.37607 0.45 0.0
-1.40784 0.65 0.0
-1.39894 0.6 0.0
-1.41185 0.75 0.0
-1.39918 0.7 0.0
-1.38322 0.3 0.0
-1.34729 0 0.0
-1.34492 0.05 0.0
-1.34018 0.15 0.0
-1.34255 0.1 0.0
-1.40707 0.85 0.0
-1.39941 0.8 0.0
-1.39977 0.95 0.0
-1.39965 0.9 0.0
-1.39989 1 0.0
-1.33781 0.2 0.0
-1.33544 0.25 0.0
-1.37131 0.55 0.0
-1.34859 0.5 0.0
-1.33833 0.4 0.0
-1.3307 0.35 0.0
-1.32595 0.45 0.0
-1.34885 0.6 0.0
-1.36655 0.65 0.0
-1.36179 0.75 0.0
-1.34911 0.7 0.0
-1.33307 0.3 0.0
-1.29708 0 0.0
-1.29722 0.05 0.0
-1.2975 0.15 0.0
-1.29236 0.1 0.0
-1.35703 0.85 0.0
-1.34937 0.8 0.0
-1.34988 1 0.0
-1.34962 0.9 0.0
-1.35226 0.95 0.0
-1.28528 0.25 0.0
-1.28764 0.2 0.0
-1.28931 0.35 0.0
-1.32121 0.55 0.0
-1.29848 0.5 0.0
-1.28709 0.45 0.0
-1.2982 0.4 0.0
-1.29876 0.6 0.0
-1.31647 0.65 0.0
-1.29918 0.75 0.0
-1.29904 0.7 0.0
-1.28292 0.3 0.0
-1.24687 0 0.0
-1.24702 0.05 0.0
-1.24717 0.1 0.0
-1.24732 0.15 0.0
-1.29946 0.85 0.0
-1.29932 0.8 0.0
-1.29987 1 0.0
-1.29974 0.95 0.0
-1.30462 0.9 0.0
-1.24762 0.25 0.0
-1.23747 0.2 0.0
-1.24792 0.35 0.0
-1.22807 0.4 0.0
-1.27111 0.55 0.0
-1.24837 0.5 0.0
-1.24822 0.45 0.0
-1.24867 0.6 0.0
-1.26639 0.65 0.0
-1.26167 0.75 0.0
-1.24897 0.7 0.0
-1.23277 0.3 0.0
-1.19667 0 0.0
-1.19683 0.05 0.0
-1.18964 0.15 0.0
-1.19198 0.1 0.0
-1.25695 0.85 0.0
-1.24927 0.8 0.0
-1.25223 0.95 0.0
-1.24987 1 0.0
-1.24957 0.9 0.0
-1.1873 0.2 0.0
-1.18496 0.25 0.0
-1.18028 0.35 0.0
-1.17794 0.4 0.0
-1.1981 0.45 0.0
-1.19842 0.55 0.0
-1.19826 0.5 0.0
-1.19858 0.6 0.0
-1.19874 0.65 0.0
-1.19906 0.75 0.0
-1.1989 0.7 0.0
-1.18262 0.3 0.0
-1.14646 0 0.0
-1.14663 0.05 0.0
-1.1418 0.1 0.0
-1.13713 0.2 0.0
-1.14697 0.15 0.0
-1.20691 0.85 0.0
-1.20926 0.8 0.0
-1.20221 0.95 0.0
-1.19986 1 0.0
-1.20456 0.9 0.0
-1.13997 0.3 0.0
-1.14731 0.25 0.0
-1.13781 0.4 0.0
-1.13014 0.35 0.0
-1.12548 0.45 0.0
-1.14815 0.5 0.0
-1.15962 0.55 0.0
-1.14849 0.6 0.0
-1.15745 0.65 0.0
-1.16155 0.75 0.0
-1.14917 0.8 0.0
-1.14883 0.7 0.0
-1.09625 0 0.0
-1.09661 0.1 0.0
-1.09393 0.05 0.0
-1.09697 0.2 0.0
-1.08929 0.15 0.0
-1.15687 0.85 0.0
-1.14985 1 0.0
-1.15219 0.95 0.0
-1.14951 0.9 0.0
-1.09733 0.3 0.0
-1.08465 0.25 0.0
-1.09769 0.4 0.0
-1.08 0.35 0.0
-1.08661 0.45 0.0
-1.09804 0.5 0.0
-1.12082 0.55 0.0
-1.10916 0.8 0.0
-1.10629 0.7 0.0
-1.0984 0.6 0.0
-1.11616 0.65 0.0
-1.11149 0.75 0.0
-1.04604 0 0.0
-1.04623 0.05 0.0
-1.04642 0.1 0.0
-1.0468 0.2 0.0
-1.03911 0.15 0.0
-1.09948 0.9 0.0
-1.0993 0.85 0.0
-1.09984 1 0.0
-1.09966 0.95 0.0
-1.04718 0.3 0.0
-1.03449 0.25 0.0
-1.04756 0.4 0.0
-1.02986 0.35 0.0
-1.04775 0.45 0.0
-1.04794 0.5 0.0
-1.04813 0.55 0.0
-1.05911 0.8 0.0
-1.04831 0.6 0.0
-1.06376 0.7 0.0
-1.0485 0.65 0.0
-1.04888 0.75 0.0
-0.995833 0 0.0
-0.991231 0.1 0.0
-0.996033 0.05 0.0
-0.986629 0.2 0.0
-0.98893 0.15 0.0
-1.05447 0.9 0.0
-1.04926 0.85 0.0
-1.04983 1 0.0
-1.04964 0.95 0.0
-0.984328 0.25 0.0
-0.99703 0.3 0.0
-0.997429 0.4 0.0
-0.997628 0.45 0.0
-0.979726 0.35 0.0
-0.997827 0.5 0.0
-0.998027 0.55 0.0
-0.998226 0.6 0.0
-0.961416 0.475 0.0
-1.00907 0.8 0.0
-0.998426 0.65 0.0
-0.998625 0.7 0.0
-1.01138 0.75 0.0
-0.945625 0 0.0
-0.946044 0.1 0.0
-0.943334 0.05 0.0
-0.946463 0.2 0.0
-0.938752 0.15 0.0
-1.00444 0.9 0.0
-1.00675 0.85 0.0
-0.999821 1 0.0
-1.00213 0.95 0.0
-0.93417 0.25 0.0
-0.946881 0.3 0.0
-0.9473 0.4 0.0
-0.929588 0.35 0.0
-0.925005 0.45 0.0
-0.960371 0.525 0.0
-0.959325 0.575 0.0
-0.958279 0.625 0.0
-0.922714 0.5 0.0
-0.959017 0.8 0.0
-0.957233 0.675 0.0
-0.952999 0.7125 0.0
-0.948766 0.75 0.0
-0.895417 0 0.0
-0.895855 0.1 0.0
-0.893136 0.05 0.0
-0.896294 0.2 0.0
-0.888573 0.15 0.0
-0.949184 0.85 0.0
-0.954415 0.9 0.0
-0.949812 1 0.0
-0.949603 0.95 0.0
-0.884011 0.25 0.0
-0.896733 0.3 0.0
-0.874887 0.45 0.0
-0.879449 0.35 0.0
-0.897171 0.4 0.0
-0.920423 0.55 0.0
-0.918132 0.6 0.0
-0.915841 0.65 0.0
-0.872606 0.5 0.0
-0.908968 0.8 0.0
-0.91355 0.7 0.0
-0.898707 0.75 0.0
-0.845208 0 0.0
-0.845438 0.05 0.0
-0.845667 0.1 0.0
-0.845896 0.15 0.0
-0.833853 0.25 0.0
-0.846126 0.2 0.0
-0.899146 0.85 0.0
-0.904386 0.9 0.0
-0.899584 0.95 0.0
-0.899804 1 0.0
-0.838062 0.35 0.0
[...]
POINT_DATA 10839
VECTORS Velocity float
0.21 0 0.0
0.24 0 0.0
0.2275 0 0.0
0.2475 0 0.0
0.25 0 0.0
0.2475 0 0.0
0 0 0.0
0.0475 0 0.0
0.1275 0 0.0
0.09 0 0.0
0.09 0 0.0
0.1275 0 0.0
0.1875 0 0.0
0.16 0 0.0
0.195557 -2.16955e-05 0.0
0.242841 -2.92018e-05 0.0
0.215776 -2.5718e-05 0.0
0.231406 -2.88675e-05 0.0
0.248725 -3.09214e-05 0.0
0.24 0 0.0
0.24284 -2.8721e-05 0.0
0.24852 -2.96274e-05 0.0
0 0 0.0
0.0622238 -3.8782e-06 0.0
0.0322266 -2.55733e-06 0.0
0.16 0 0.0
0.1875 0 0.0
0.21 0 0.0
0.2275 0 0.0
0.193592 -2.37201e-05 0.0
0.138887 -1.33817e-05 0.0
0 0 0.0
0.0475 0 0.0
0.0998417 -9.43008e-06 0.0
0.0622207 -3.92187e-06 0.0
0.099846 -9.95941e-06 0.0
0.13889 -1.37587e-05 0.0
0.174379 -3.41971e-05 0.0
0.201605 -4.66269e-05 0.0
0.235787 -5.64232e-05 0.0
0.244084 -5.87789e-05 0.0
0.223601 -7.57518e-05 0.0
0.249751 -6.09927e-05 0.0
0.249044 -6.75864e-05 0.0
0.231404 -2.87175e-05 0.0
0.244081 -5.72223e-05 0.0
0 0 0.0
0.0361069 -4.88642e-06 0.0
0.0736115 -1.36214e-05 0.0
0.0622466 -1.48591e-05 0.0
0.174371 -3.27903e-05 0.0
0.220162 -4.5242e-05 0.0
0.201595 -4.53232e-05 0.0
0.115549 -1.99916e-05 0.0
0.146677 -3.06041e-05 0.0
0 0 0.0
0.0360879 -3.33165e-06 0.0
0.069367 -1.06398e-05 0.0
0.0899854 -2.07703e-05 0.0
0.10939 -2.84363e-05 0.0
0.146691 -3.07699e-05 0.0
0.1789 -5.71176e-05 0.0
0.206292 -7.4359e-05 0.0
0.214498 -9.98655e-05 0.0
0.238526 -8.80478e-05 0.0
0.247349 -9.10899e-05 0.0
0.229604 -0.000112243 0.0
0.226324 -7.71802e-05 0.0
0.249982 -9.09058e-05 0.0
0.246426 -8.79428e-05 0.0
0.236681 -8.24911e-05 0.0
0 0 0.0
0.032248 -5.5025e-06 0.0
0.0956933 -3.2165e-05 0.0
0.0694239 -2.42183e-05 0.0
0.178878 -5.44071e-05 0.0
0.20627 -7.23349e-05 0.0
0.12748 -4.22229e-05 0.0
0.165877 -6.83623e-05 0.0
0.152328 -4.94619e-05 0.0
0 0 0.0
0.0360808 -4.73534e-06 0.0
0.0621987 -1.45663e-05 0.0
0.0956342 -3.20829e-05 0.0
0.127522 -4.38362e-05 0.0
0.156658 -6.35537e-05 0.0
0.115596 -5.01783e-05 0.0
0.193622 -0.000104313 0.0
0.218137 -0.000131459 0.0
0.240938 -0.000118908 0.0
0.247736 -0.000122528 0.0
0.249999 -0.000123022 0.0
0.234394 -0.000151217 0.0
0.229578 -0.000106994 0.0
0.247727 -0.000120655 0.0
0.24092 -0.000115771 0.0
0 0 0.0
0.0344827 -7.61369e-06 0.0
0.103114 -4.92111e-05 0.0
0.0622948 -2.45488e-05 0.0
0.189731 -8.51244e-05 0.0
0.212993 -0.000117886 0.0
0.170541 -9.16394e-05 0.0
0.144336 -6.85152e-05 0.0
0 0 0.0
0.0399013 -8.02422e-06 0.0
0.0997942 -4.34638e-05 0.0
0.0693278 -2.33126e-05 0.0
0.170619 -9.62557e-05 0.0
0.144416 -7.29639e-05 0.0
0.124369 -7.38182e-05 0.0
0.183643 -0.000121563 0.0
0.204125 -0.000145289 0.0
0.222032 -0.000170389 0.0
0.249108 -0.000159819 0.0
0.244023 -0.000158448 0.0
0.249117 -0.000161455 0.0
0.238544 -0.000191864 0.0
0.234355 -0.000144587 0.0
0.244883 -0.000166854 0.0
0 0 0.0
0.0322852 -8.07417e-06 0.0
0.0940636 -5.16532e-05 0.0
0.0652049 -3.09087e-05 0.0
0.196704 -0.000125385 0.0
0.217877 -0.000153505 0.0
0.177451 -0.000126359 0.0
0.148701 -8.94441e-05 0.0
0.12034 -6.32891e-05 0.0
0 0 0.0
0.0343957 -7.5672e-06 0.0
0.0716552 -3.01501e-05 0.0
0.152416 -0.000105582 0.0
0.127602 -9.15008e-05 0.0
0.187569 -0.000150865 0.0
0.211941 -0.000187624 0.0
0.248603 -0.000196601 0.0
0.225675 -0.000211716 0.0
0.249778 -0.000200399 0.0
0.246468 -0.000198976 0.0
0.242055 -0.000234324 0.0
0.238492 -0.000183142 0.0
0 0 0.0
0.0338643 -1.00159e-05 0.0
0.0999768 -6.84793e-05 0.0
0.0695261 -4.03232e-05 0.0
0.206271 -0.000163277 0.0
0.222413 -0.000190047 0.0
0.189994 -0.00016773 0.0
0.168274 -0.000136811 0.0
0.143023 -0.000106196 0.0
0.12421 -7.93416e-05 0.0
0.0970995 -5.38319e-05 0.0
0 0 0.0
0.036029 -9.5189e-06 0.0
0.0673315 -3.22159e-05 0.0
0.130318 -0.000110249 0.0
0.16847 -0.000148493 0.0
0.199461 -0.000194141 0.0
0.218366 -0.000227395 0.0
0.241993 -0.000223832 0.0
0.249994 -0.000239155 0.0
0.247986 -0.000233401 0.0
0.229067 -0.000255601 0.0
0.244923 -0.000278038 0.0
0.248731 -0.000253397 0.0
0.23445 -0.000226192 0.0
0 0 0.0
0.0362174 -1.23431e-05 0.0
0.122637 -0.000111702 0.0
0.0712029 -4.56554e-05 0.0
0.208365 -0.000196247 0.0
0.225137 -0.00023257 0.0
0.198072 -0.000201164 0.0
0.177752 -0.000168416 0.0
0.146554 -0.000126572 0.0
0.119158 -9.00524e-05 0.0
0.0970721 -6.08908e-05 0.0
0 0 0.0
0.0349507 -1.07284e-05 0.0
0.0672997 -3.65704e-05 0.0
0.152283 -0.000154864 0.0
0.178002 -0.000190697 0.0
0.210101 -0.000241638 0.0
0.244856 -0.000263909 0.0
0.249412 -0.000275836 0.0
0.232205 -0.000302084 0.0
0.244177 -0.000317975 0.0
0.249972 -0.000326701 0.0
0.249118 -0.000295422 0.0
0.235918 -0.000266386 0.0
0.212942 -0.00029977 0.0
0 0 0.0
0.0371388 -1.32323e-05 0.0
0.141088 -0.000156313 0.0
0.0999258 -8.82906e-05 0.0
0.0665641 -4.07247e-05 0.0
0.213649 -0.000233815 0.0
0.186642 -0.000202955 0.0
0.165123 -0.000168057 0.0
0.122277 -0.000108001 0.0
0.0928965 -6.76571e-05 0.0
0 0 0.0
0.0349243 -1.23553e-05 0.0
0.064255 -4.06184e-05 0.0
0.165578 -0.000200033 0.0
0.18695 -0.000237261 0.0
0.158104 -0.000208862 0.0
0.247083 -0.000306849 0.0
0.248673 -0.000352734 0.0
0.231025 -0.00034429 0.0
0.240497 -0.000361424 0.0
0.248729 -0.000368271 0.0
0.240203 -0.000303953 0.0
0.229269 -0.000290911 0.0
0.199161 -0.000296828 0.0
0.218606 -0.0003565 0.0
0 0 0.0
0.0346166 -1.08273e-05 0.0
0.126143 -0.000145299 0.0
0.0681322 -4.17966e-05 0.0
0.0987809 -8.96441e-05 0.0
0.208117 -0.000258001 0.0
0.189805 -0.000226855 0.0
0.168179 -0.000192845 0.0
0.140668 -0.000145458 0.0
0.0954502 -8.26947e-05 0.0
0 0 0.0
0.0332699 -1.37337e-05 0.0
0.0660908 -5.19818e-05 0.0
0.183204 -0.000281379 0.0
0.159246 -0.000236084 0.0
0.244886 -0.000352819 0.0
0.249626 -0.000400666 0.0
0.235923 -0.000406786 0.0
0.244816 -0.000417375 0.0
0.249337 -0.000414691 0.0
0.238618 -0.000345315 0.0
0.218452 -0.000300387 0.0
0.20308 -0.000355962 0.0
0.223334 -0.000415641 0.0
0 0 0.0
0.0477511 -1.84629e-05 0.0
0.127898 -0.000162713 0.0
0.0903739 -7.53288e-05 0.0
0.202659 -0.000268176 0.0
0.178036 -0.000226635 0.0
0.147963 -0.000181382 0.0
0.118779 -0.000126968 0.0
0.0780747 -7.96039e-05 0.0
0 0 0.0
0.0342473 -1.84e-05 0.0
0.187816 -0.000345857 0.0
0.160392 -0.00026797 0.0
0.246424 -0.000398711 0.0
0.249943 -0.000453978 0.0
0.240082 -0.00047444 0.0
0.247503 -0.000502015 0.0
0.239846 -0.000383863 0.0
0.227312 -0.000341889 0.0
0.209785 -0.0002984 0.0
0.227673 -0.000482684 0.0
0.210259 -0.000433164 0.0
0 0 0.0
0.0477859 -1.56082e-05 0.0
0.128006 -0.000180711 0.0
0.0904465 -7.57308e-05 0.0
0.187257 -0.000257819 0.0
0.159724 -0.000216682 0.0
0.0472186 -3.94998e-05 0.0
0.127186 -0.000170005 0.0
0.0896569 -0.000111399 0.0
0 0 0.0
0.187901 -0.000408033 0.0
0.160503 -0.000312597 0.0
0.247368 -0.000446941 0.0
0.249911 -0.000510422 0.0
0.240088 -0.000550832 0.0
0.24748 -0.000574865 0.0
0.227266 -0.00036024 0.0
0.239799 -0.000413014 0.0
0.187217 -0.000268525 0.0
0.20974 -0.000310331 0.0
0.2277 -0.000549733 0.0
0.210321 -0.000514601 0.0
0 0 0.0
0.0478188 -1.37569e-05 0.0
0.128139 -0.000209698 0.0
0.0905496 -8.21622e-05 0.0
0.127136 -0.000192085 0.0
0.159685 -0.000231751 0.0
0.0471481 -4.90475e-05 0.0
0.0895844 -0.000132019 0.0
0 0 0.0
0.188006 -0.000489421 0.0
0.16064 -0.000375229 0.0
0.247317 -0.000487939 0.0
0.249863 -0.000569979 0.0
0.227723 -0.000631196 0.0
0.240082 -0.000682987 0.0
0.247444 -0.000658353 0.0
0.227218 -0.000366936 0.0
0.239737 -0.000435037 0.0
0.187189 -0.000267354 0.0
0.209692 -0.000307312 0.0
0.21039 -0.00061773 0.0
0 0 0.0
0.0478589 -1.48884e-05 0.0
0.128332 -0.000270896 0.0
0.0906673 -0.000102805 0.0
0.127099 -0.000203366 0.0
0.159654 -0.000234744 0.0
0.0470565 -5.89141e-05 0.0
0.0895072 -0.00014989 0.0
0 0 0.0
0.160809 -0.000466823 0.0
0.188163 -0.000630255 0.0
0.247246 -0.000527164 0.0
0.249792 -0.000634713 0.0
0.240064 -0.000778326 0.0
0.227759 -0.000799974 0.0
0.247384 -0.000753987 0.0
0.239654 -0.000446676 0.0
0.227162 -0.000363195 0.0
0.187154 -0.000247817 0.0
0.209636 -0.000284048 0.0
0.210466 -0.000754839 0.0
0 0 0.0
0.0479096 -2.30865e-05 0.0
0.128509 -0.000348539 0.0
0.0908208 -0.000148466 0.0
0.127065 -0.000201863 0.0
0.159633 -0.000216242 0.0
0 0 0.0
0.0894325 -0.000156333 0.0
0.0469626 -6.53552e-05 0.0
0.18831 -0.000797814 0.0
0.161008 -0.000602326 0.0
0.227769 -0.000936081 0.0
0.247148 -0.000562764 0.0
0.24969 -0.000705189 0.0
0.247315 -0.000839943 0.0
0.240033 -0.000888356 0.0
0.239542 -0.000444894 0.0
0.227076 -0.000340208 0.0
0.187115 -0.00018008 0.0
0.209568 -0.000231973 0.0
0.210544 -0.000927801 0.0
0 0 0.0
0.0479933 -4.55962e-05 0.0
0.0910069 -0.000218696 0.0
0.128758 -0.000487068 0.0
0.127048 -0.000161756 0.0
0.159625 -0.000162039 0.0
0 0 0.0
0.0468593 -6.58985e-05 0.0
0.089378 -0.000142619 0.0
0.188433 -0.000956536 0.0
0.161243 -0.000800078 0.0
0.227761 -0.00110011 0.0
0.239931 -0.00112747 0.0
0.247011 -0.00059383 0.0
0.249545 -0.00078028 0.0
0.247225 -0.000937597 0.0
0.239391 -0.000426314 0.0
0.226961 -0.000290868 0.0
0.187084 -0.000105552 0.0
0.209482 -0.000142467 0.0
0.210618 -0.00115318 0.0
0 0 0.0
0.0481348 -7.83069e-05 0.0
0.129132 -0.000732704 0.0
0.0913305 -0.000359194 0.0
0.127054 -9.3864e-05 0.0
0.159628 -5.822e-05 0.0
0.0467817 -5.61131e-05 0.0
0 0 0.0
0.0893466 -9.25557e-05 0.0
0.16151 -0.0010727 0.0
0.188645 -0.00130693 0.0
0.227717 -0.00143352 0.0
0.2398 -0.00134244 0.0
0.247056 -0.00108643 0.0
0.246727 -0.000627052 0.0
0.249345 -0.000867291 0.0
0.239189 -0.000386465 0.0
0.226749 -0.00017344 0.0
0.187031 8.88929e-05 0.0
0.209367 -4.68806e-06 0.0
0.210677 -0.00144211 0.0
0 0 0.0
0.0483578 -0.000131091 0.0
0.0917386 -0.000532418 0.0
0.161811 -0.00142613 0.0
0.129461 -0.000977273 0.0
0.127095 4.32248e-05 0.0
0.159633 7.11683e-05 0.0
0.0467355 -3.1982e-05 0.0
0 0 0.0
0.0893621 -2.06128e-05 0.0
0.210707 -0.00173772 0.0
0.188765 -0.00158035 0.0
0.239654 -0.00154654 0.0
0.22762 -0.00175595 0.0
0.246705 -0.00133596 0.0
0.249075 -0.000960647 0.0
0.246507 -0.000639284 0.0
0.238921 -0.000324292 0.0
0.226561 -6.73635e-05 0.0
0.186973 0.000253998 0.0
0.159661 0.000357379 0.0
0.20921 0.000186053 0.0
0 0 0.0
0.0922531 -0.000739676 0.0
0.0487105 -0.000197629 0.0
0.162078 -0.00178515 0.0
0.130037 -0.00140017 0.0
0.127182 0.000251231 0.0
0 0 0.0
0.0467486 2.90362e-06 0.0
0.0894845 0.000120852 0.0
0.210712 -0.00208373 0.0
0.188969 -0.00214671 0.0
0.239459 -0.00176915 0.0
0.227472 -0.00213543 0.0
0.246424 -0.0015011 0.0
0.248712 -0.00106637 0.0
0.246246 -0.00064857 0.0
0.159672 0.000608456 0.0
0.209029 0.000394403 0.0
0.238565 -0.000238634 0.0
0.22633 6.65762e-05 0.0
0.186873 0.000540443 0.0
0 0 0.0
0.0491627 -0.000270375 0.0
0.0929672 -0.00101046 0.0
0.16244 -0.00230206 0.0
0.130656 -0.00184588 0.0
0.0897241 0.000303208 0.0
0.127357 0.000572843 0.0
0 0 0.0
0.0468589 6.16043e-05 0.0
0.210663 -0.00257011 0.0
0.1891 -0.0026952 0.0
0.239137 -0.00209811 0.0
0.227241 -0.00257239 0.0
0.246105 -0.00168094 0.0
0.248257 -0.00118391 0.0
0.245597 -0.0006493 0.0
0.159705 0.00100379 0.0
0.238116 -0.000129407 0.0
0.208799 0.000643338 0.0
0.225831 0.000350412 0.0
0.186691 0.00100075 0.0
0 0 0.0
0.0940232 -0.00134373 0.0
0.0498308 -0.000373871 0.0
0.162946 -0.00303573 0.0
0.131437 -0.00235491 0.0
0.0900637 0.000508744 0.0
0.127605 0.000917963 0.0
0 0 0.0
0.0470595 0.000119522 0.0
0.189214 -0.00332704 0.0
0.21056 -0.00313162 0.0
0.238711 -0.00247752 0.0
0.24558 -0.00193958 0.0
0.226921 -0.003072 0.0
0.24767 -0.00131523 0.0
0.244987 -0.000652147 0.0
0.237542 -3.23173e-06 0.0
0.24673 -0.00179264 0.0
0.159733 0.00146217 0.0
0.225321 0.00060355 0.0
0.208318 0.00110506 0.0
0.186524 0.00132661 0.0
0 0 0.0
0.0950979 -0.00164461 0.0
0.0506798 -0.00047998 0.0
0.163313 -0.00357731 0.0
0.132382 -0.00291006 0.0
0.0905986 0.000752009 0.0
0.127893 0.00125851 0.0
0 0 0.0
0.0473989 0.000186672 0.0
0.189299 -0.0040301 0.0
0.210376 -0.00376554 0.0
0.23816 -0.00289327 0.0
0.226497 -0.00363455 0.0
0.244575 -0.00237489 0.0
0.246388 -0.00104158 0.0
0.241309 -0.000264873 0.0
0.231503 0.000483585 0.0
0.246532 -0.00154201 0.0
0.159793 0.0019807 0.0
0.21696 0.00115732 0.0
0.202909 0.00160454 0.0
0.1862 0.00194384 0.0
0 0 0.0
0.0965284 -0.00199418 0.0
0.0517044 -0.000586827 0.0
0.163862 -0.00429996 0.0
0.133518 -0.00349076 0.0
0.128447 0.00176107 0.0
0.0913322 0.00101509 0.0
0 0 0.0
0.0479432 0.000272101 0.0
0.189363 -0.00479453 0.0
0.210117 -0.00446284 0.0
0.243705 -0.00270542 0.0
0.225955 -0.00424833 0.0
0.237488 -0.00336487 0.0
0.243778 -0.000657966 0.0
0.236336 0.000239265 0.0
0.224212 0.00108585 0.0
0.24557 -0.00171778 0.0
0.159865 0.00252136 0.0
0.207408 0.00182485 0.0
0.185849 0.00247767 0.0
0 0 0.0
0.0528534 -0.00068923 0.0
0.0981956 -0.00233614 0.0
0.134666 -0.00398913 0.0
0.189423 -0.00559944 0.0
0.164491 -0.00504712 0.0
0.129068 0.00221296 0.0
0.0922519 0.00127983 0.0
0.0485667 0.00035896 0.0
0 0 0.0
0.225416 -0.00479914 0.0
0.209776 -0.0052155 0.0
0.242914 -0.00299078 0.0
0.236661 -0.0038794 0.0
0.223348 0.00140737 0.0
0.242791 -0.000662697 0.0
0.235376 0.000400534 0.0
0.244441 -0.00191498 0.0
0.185464 0.00303126 0.0
0.160036 0.00318803 0.0
0.206498 0.0024246 0.0
0 0 0.0
0.0542795 -0.0007876 0.0
0.100339 -0.00267939 0.0
0.136212 -0.00457447 0.0
0.189467 -0.00624079 0.0
0.165425 -0.0059663 0.0
0.129855 0.00264537 0.0
0.0935004 0.00156065 0.0
0.049376 0.000437749 0.0
0 0 0.0
0.13084 0.0030448 0.0
0.224794 -0.00537157 0.0
0.209221 -0.00626444 0.0
0.235263 -0.00467399 0.0
0.242025 -0.00329373 0.0
0.221934 0.00185976 0.0
0.234246 0.000565722 0.0
0.241624 -0.000683111 0.0
0.243121 -0.00214098 0.0
0.185031 0.00359388 0.0
0.160245 0.00370917 0.0
0.205641 0.00288872 0.0
0 0 0.0
0.0558545 -0.000867655 0.0
0.102563 -0.00297831 0.0
0.13798 -0.0051175 0.0
0.189555 -0.00708384 0.0
0.166349 -0.00671139 0.0
0.0502592 0.000494246 0.0
0.0948228 0.00176533 0.0
0 0 0.0
0.131769 0.00333436 0.0
0.223926 -0.00611378 0.0
0.208715 -0.00710874 0.0
0.234061 -0.00528637 0.0
0.240713 -0.00372574 0.0
0.220912 0.00212014 0.0
0.23294 0.000721456 0.0
0.241615 -0.00239366 0.0
0.239608 -0.000742254 0.0
0.184685 0.00398958 0.0
0.160546 0.00416891 0.0
0.20469 0.00334837 0.0
0 0 0.0
0.0576131 -0.000953802 0.0
0.104998 -0.00324428 0.0
0.14031 -0.00569308 0.0
0.189746 -0.00814493 0.0
0.208165 -0.00797687 0.0
0.167462 -0.00742393 0.0
0.0512584 0.000537517 0.0
0.0963036 0.00192177 0.0
0 0 0.0
0.133037 0.00358583 0.0
0.222575 -0.00716768 0.0
0.232989 -0.00581375 0.0
0.239224 -0.00419028 0.0
0.240347 -0.00261109 0.0
0.219798 0.00238 0.0
0.231434 0.00084719 0.0
0.23796 -0.000810619 0.0
0.160987 0.00455323 0.0
0.184238 0.00446455 0.0
0.203636 0.00377266 0.0
0 0 0.0
0.059537 -0.00104952 0.0
0.107656 -0.00346652 0.0
0.142615 -0.00612838 0.0
0.189922 -0.00876512 0.0
0.207598 -0.00884876 0.0
0.168775 -0.00808971 0.0
0.0523472 0.000554139 0.0
0.0979324 0.00202234 0.0
0 0 0.0
0.161397 0.00478114 0.0
0.0996291 0.0020612 0.0
0.134649 0.00373952 0.0
0.221429 -0.00800484 0.0
0.23181 -0.00635286 0.0
0.236724 -0.00493291 0.0
0.238975 -0.00284172 0.0
0.236557 -0.000891241 0.0
0.218304 0.00266775 0.0
0.229028 0.000994352 0.0
0.183717 0.00495215 0.0
0.202678 0.00408726 0.0
0.220431 -0.0086875 0.0
0 0 0.0
0.0615073 -0.00109812 0.0
0.145173 -0.00648407 0.0
0.110465 -0.00364902 0.0
0.207041 -0.00972069 0.0
0.190375 -0.0097466 0.0
0.170299 -0.00868162 0.0
0.0535555 0.000566619 0.0
0 0 0.0
0.18345 0.00513903 0.0
0.162078 0.00494174 0.0
0.136236 0.00371706 0.0
0.0545616 0.000568759 0.0
0.101369 0.0019974 0.0
0.23022 -0.00706647 0.0
0.235219 -0.00536992 0.0
0.236958 -0.00319025 0.0
0.235313 -0.00348501 0.0
0.235021 -0.000985466 0.0
0.216658 0.00289051 0.0
0.227064 0.00104272 0.0
0.201697 0.00434581 0.0
0.219382 -0.0093805 0.0
0.0634183 -0.00114372 0.0
0 0 0.0
0.147473 -0.0067301 0.0
0.113395 -0.00377669 0.0
0.206531 -0.010558 0.0
0.190771 -0.0102904 0.0
0.172068 -0.00919735 0.0
0 0 0.0
0.183188 0.005285 0.0
0.163051 0.00489905 0.0
0.13759 0.00360381 0.0
0.0555878 0.000512514 0.0
0.103032 0.00186098 0.0
0.227725 -0.00812224 0.0
0.233615 -0.00582091 0.0
0.233559 -0.00379822 0.0
0.231836 -0.00123301 0.0
0.214912 0.00304935 0.0
0.224953 0.0010311 0.0
0.200175 0.00457709 0.0
0.218086 -0.0102213 0.0
0 0 0.0
0.065562 -0.00115838 0.0
0.150363 -0.00695136 0.0
0.116137 -0.00386103 0.0
0.174046 -0.00961012 0.0
0.206105 -0.0113579 0.0
0.191648 -0.0110897 0.0
0 0 0.0
0 0 0.0
0.183045 0.00521766 0.0
0.164072 0.00463696 0.0
0.139256 0.00331028 0.0
0.104605 0.00163727 0.0
0.0565228 0.000430897 0.0
0.225815 -0.00889485 0.0
0.231383 -0.00644591 0.0
0.223143 0.000967833 0.0
0.231059 -0.00426503 0.0
0.229398 -0.00149673 0.0
0.213079 0.00308653 0.0
0.199039 0.00457313 0.0
0.224203 -0.00952141 0.0
0.216772 -0.0110331 0.0
0.0677745 -0.00118646 0.0
0.119231 -0.00392294 0.0
0.153427 -0.00712603 0.0
0.175843 -0.00988591 0.0
0.205801 -0.0120774 0.0
0.192342 -0.0115268 0.0
0 0 0.0
0 0 0.0
0.164898 0.00429092 0.0
0.183054 0.00483625 0.0
0.105842 0.00137466 0.0
0.141078 0.0027981 0.0
0.0572765 0.000342114 0.0
0.227881 -0.00739431 0.0
0.228382 -0.00480224 0.0
0.197989 0.00435627 0.0
0.221263 0.000835617 0.0
0.227404 -0.00176023 0.0
0.210541 0.00290661 0.0
0.22258 -0.0101241 0.0
0.215073 -0.0120537 0.0
0.205628 -0.0127215 0.0
0.0700271 -0.00124798 0.0
0.122395 -0.00398597 0.0
0.157061 -0.00728746 0.0
0.178189 -0.0101531 0.0
0.193735 -0.0121192 0.0
0 0 0.0
0 0 0.0
0.166235 0.00351384 0.0
0.183258 0.00423039 0.0
0.10713 0.000967578 0.0
0.142544 0.00220417 0.0
0.0579171 0.000242922 0.0
0.225314 -0.00207726 0.0
0.225583 -0.00540293 0.0
0.225329 -0.00809988 0.0
0.197062 0.00390882 0.0
0.218851 0.000527355 0.0
0.208685 0.00252941 0.0
0.183569 0.00337225 0.0
0.219693 -0.0111531 0.0
0 0 0.0
0.213873 -0.0127677 0.0
0.195102 -0.0125171 0.0
0.205607 -0.0132917 0.0
0.0721631 -0.0012819 0.0
0.159893 -0.00740318 0.0
0.125907 -0.00411486 0.0
0.181256 -0.0104665 0.0
0 0 0.0
0 0 0.0
0 0 0.0
0 0 0.0
0 0 0.0
0.0582867 0.000132411 0.0
0.143813 0.00148308 0.0
0.167366 0.00263701 0.0
0.107931 0.000605902 0.0
0.222531 -0.0025829 0.0
0.222712 -0.00609164 0.0
0.222707 -0.00884374 0.0
0.207194 0.00204939 0.0
0.196254 0.00318053 0.0
0.215379 -0.000186952 0.0
0.195692 0.00234847 0.0
0.183828 0.0025896 0.0
0.217661 -0.0118964 0.0
0.212774 -0.0134152 0.0
0 0 0.0
-1.48448e-05 3.757e-05 0.0
0 0 0.0
-0.000681417 0.00607884 0.0
0.205749 -0.0138165 0.0
0.19622 -0.0128031 0.0
0.0745959 -0.0013581 0.0
0.163184 -0.00759928 0.0
0.129157 -0.00430915 0.0
0.183964 -0.0107703 0.0
0 0 0.0
0 0 0.0
0 0 0.0
-0.000585667 0.00407578 0.0
-0.000248997 0.000460737 0.0
-0.000513563 0.000499599 0.0
0 0 0.0
0.0584096 3.10359e-06 0.0
0.144648 0.000832892 0.0
0.168354 0.00161606 0.0
0.108478 0.000148674 0.0
0.219715 -0.0032513 0.0
0.219813 -0.00687354 0.0
0.220081 -0.00960694 0.0
0.205801 0.00140282 0.0
0.213454 -0.000794995 0.0
0.195192 0.00135611 0.0
0.18424 0.00103933 0.0
0.215705 -0.0126289 0.0
0.213053 -0.0137396 0.0
0.209187 -0.0142647 0.0
0 0 0.0
-0.000443176 0.000232537 0.0
0 0 0.0
0 0 0.0
-0.00226099 0.011838 0.0
-0.00252728 0.00889331 0.0
0.204147 -0.014153 0.0
0.197779 -0.0132412 0.0
0.13214 -0.00458003 0.0
0.0769573 -0.00149527 0.0
0.166523 -0.0079412 0.0
0.186655 -0.0111814 0.0
0 0 0.0
-0.00139034 0.00300118 0.0
-0.00203498 0.00566697 0.0
-0.00133687 0.00176879 0.0
-0.00181915 0.00128318 0.0
0 0 0.0
0.0583386 -0.00011724 0.0
0.145317 2.63323e-05 0.0
0.169137 0.000500054 0.0
0.108623 -0.00027872 0.0
0.216892 -0.00406441 0.0
0.216975 -0.00775816 0.0
0.217504 -0.0104194 0.0
0.203666 -5.19572e-05 0.0
0.21155 -0.00152971 0.0
0.194698 -2.06755e-05 0.0
0.169705 -0.000684682 0.0
0.184558 -0.000361378 0.0
0.214219 -0.0132255 0.0
0.211204 -0.014503 0.0
0.206234 -0.0147933 0.0
0 0 0.0
-0.00174188 0.000528314 0.0
0 0 0.0
0 0 0.0
0 0 0.0
0 0 0.0
-0.00498092 0.00919959 0.0
-0.000520408 0.00932316 0.0
-0.0021025 0.0141728 0.0
-0.00511672 0.0177905 0.0
-0.00483737 0.0134618 0.0
0 0 0.0
7.1747e-05 0.0110557 0.0
0.199777 -0.0139808 0.0
0.188854 -0.0116701 0.0
0 0 0.0
0.0798326 -0.0017417 0.0
0.135631 -0.00502608 0.0
0.170418 -0.00870083 0.0
0 0 0.0
0 0 0.0
-0.003707 0.00546167 0.0
-0.00361514 0.0033994 0.0
-0.00411481 0.00207869 0.0
0 0 0.0
0.0580045 -0.000239576 0.0
0.145612 -0.000898325 0.0
0.108369 -0.000683878 0.0
0.16985 -0.00159365 0.0
0.214171 -0.00504826 0.0
0.214915 -0.00848857 0.0
0.21502 -0.0113053 0.0
0.2025 -0.00113678 0.0