# vtk DataFile Version 3.0
Mesh NS-CD Problem
ASCII
DATASET UNSTRUCTURED_GRID
POINTS 10839 float
-2 0.3 0.0
-2 0.4 0.0
-2 0.35 0.0
-2 0.45 0.0
-2 0.5 0.0
-2 0.55 0.0
-2 0 0.0
-2 0.05 0.0
-2 0.85 0.0
-2 0.9 0.0
-2 0.1 0.0
-2 0.15 0.0
-2 0.25 0.0
-2 0.2 0.0
-1.96653 0.266667 0.0
-1.96524 0.415385 0.0
-1.96485 0.315 0.0
-1.96348 0.363636 0.0
-1.96414 0.464286 0.0
-2 0.6 0.0
-1.96538 0.584615 0.0
-1.96538 0.538462 0.0
-1.94979 0 0.0
-1.96653 0.0666666 0.0
-1.93306 0.0333333 0.0
-2 0.8 0.0
-2 0.75 0.0
-2 0.7 0.0
-2 0.65 0.0
-1.96249 0.7375 0.0
-1.96666 0.833333 0.0
-2 1 0.0
-2 0.95 0.0
-1.96249 0.8875 0.0
-1.96666 0.933333 0.0
-1.96234 0.1125 0.0
-1.96653 0.166667 0.0
-1.93724 0.225 0.0
-1.92971 0.28 0.0
-1.93048 0.380769 0.0
-1.93048 0.423077 0.0
-1.89958 0.3375 0.0
-1.9292 0.484203 0.0
-1.92117 0.530907 0.0
-1.96363 0.636364 0.0
-1.93076 0.576923 0.0
-1.89958 0 0.0
-1.88703 0.0375 0.0
-1.90963 0.08 0.0
-1.86611 0.0666666 0.0
-1.93749 0.775 0.0
-1.93635 0.672727 0.0
-1.92999 0.72 0.0
-1.93332 0.866667 0.0
-1.92856 0.821429 0.0
-1.94999 1 0.0
-1.92499 0.9625 0.0
-1.92499 0.925 0.0
-1.89998 0.9 0.0
-1.89958 0.125 0.0
-1.92827 0.178571 0.0
-1.89958 0.233333 0.0
-1.89045 0.290909 0.0
-1.86096 0.311538 0.0
-1.89241 0.392857 0.0
-1.89334 0.448489 0.0
-1.85655 0.357143 0.0
-1.89614 0.653846 0.0
-1.89427 0.504121 0.0
-1.8952 0.559753 0.0
-1.89614 0.615385 0.0
-1.84937 0 0.0
-1.83264 0.0333333 0.0
-1.85655 0.107143 0.0
-1.81172 0.075 0.0
-1.89998 0.766667 0.0
-1.89089 0.709091 0.0
-1.87498 0.85 0.0
-1.85998 0.79 0.0
-1.88748 0.8125 0.0
-1.89998 1 0.0
-1.88748 0.9625 0.0
-1.86664 0.933333 0.0
-1.85712 0.892857 0.0
-1.87448 0.15 0.0
-1.86611 0.194444 0.0
-1.83264 0.133333 0.0
-1.83264 0.2625 0.0
-1.82068 0.321429 0.0
-1.85664 0.404762 0.0
-1.85674 0.452381 0.0
-1.85683 0.5 0.0
-1.81184 0.375 0.0
-1.85712 0.642857 0.0
-1.85693 0.547619 0.0
-1.85702 0.595238 0.0
-1.79917 0 0.0
-1.78482 0.0357143 0.0
-1.79917 0.116667 0.0
-1.76569 0.0666666 0.0
-1.85452 0.745455 0.0
-1.82689 0.692308 0.0
-1.81815 0.781818 0.0
-1.82497 0.825 0.0
-1.84997 1 0.0
-1.8333 0.958333 0.0
-1.81247 0.8875 0.0
-1.81247 0.925 0.0
-1.81742 0.218182 0.0
-1.82427 0.175 0.0
-1.77634 0.145455 0.0
-1.79144 0.242308 0.0
-1.78482 0.285714 0.0
-1.77469 0.332653 0.0
-1.81215 0.529762 0.0
-1.81194 0.422619 0.0
-1.81203 0.470238 0.0
-1.76714 0.392857 0.0
-1.81234 0.625 0.0
-1.79732 0.571429 0.0
-1.74896 0 0.0
-1.73222 0.0333333 0.0
-1.75398 0.105 0.0
-1.71883 0.07 0.0
-1.79227 0.730769 0.0
-1.78007 0.679121 0.0
-1.75765 0.769231 0.0
-1.78178 0.818182 0.0
-1.78996 0.86 0.0
-1.79996 1 0.0
-1.78568 0.964286 0.0
-1.76663 0.922222 0.0
-1.76569 0.1875 0.0
-1.73222 0.15 0.0
-1.74896 0.25 0.0
-1.73714 0.304762 0.0
-1.76743 0.537202 0.0
-1.72869 0.343878 0.0
-1.76732 0.485119 0.0
-1.76723 0.440476 0.0
-1.72243 0.410714 0.0
-1.76757 0.607143 0.0
-1.69875 0 0.0
-1.68369 0.035 0.0
-1.69875 0.1125 0.0
-1.66528 0.075 0.0
-1.74341 0.708974 0.0
-1.73324 0.665934 0.0
-1.70441 0.74478 0.0
-1.71423 0.785714 0.0
-1.72303 0.826923 0.0
-1.74541 0.854545 0.0
-1.74541 0.890909 0.0
-1.74996 1 0.0
-1.73745 0.9625 0.0
-1.71359 0.927273 0.0
-1.68716 0.153846 0.0
-1.7131 0.214286 0.0
-1.70725 0.275 0.0
-1.69712 0.321939 0.0
-1.72279 0.589286 0.0
-1.72261 0.5 0.0
-1.7227 0.544643 0.0
-1.6827 0.355102 0.0
-1.67773 0.428571 0.0
-1.70763 0.464286 0.0
-1.70369 0.62449 0.0
-1.64854 0 0.0
-1.63181 0.0375 0.0
-1.64137 0.142857 0.0
-1.61764 0.0769231 0.0
-1.69458 0.703846 0.0
-1.67471 0.657437 0.0
-1.66143 0.727637 0.0
-1.67125 0.768571 0.0
-1.67851 0.821429 0.0
-1.68841 0.861538 0.0
-1.70904 0.890909 0.0
-1.69995 1 0.0
-1.68176 0.963636 0.0
-1.67267 0.927273 0.0
-1.65427 0.187143 0.0
-1.66718 0.231429 0.0
-1.66554 0.3 0.0
-1.67802 0.571429 0.0
-1.67792 0.523809 0.0
-1.6367 0.366327 0.0
-1.63682 0.423469 0.0
-1.62568 0.502976 0.0
-1.6629 0.470238 0.0
-1.65254 0.618367 0.0
-1.6059 0.307143 0.0
-1.59833 0 0.0
-1.58288 0.0384615 0.0
-1.60563 0.169643 0.0
-1.58179 0.112271 0.0
-1.56964 0.0714286 0.0
-1.64574 0.690385 0.0
-1.62827 0.751429 0.0
-1.63371 0.791071 0.0
-1.64279 0.857143 0.0
-1.65378 0.896154 0.0
-1.64994 1 0.0
-1.6363 0.963636 0.0
-1.61916 0.930769 0.0
-1.61345 0.209107 0.0
-1.62126 0.248571 0.0
-1.56989 0.196429 0.0
-1.63324 0.553571 0.0
-1.58846 0.535714 0.0
-1.59408 0.361905 0.0
-1.59161 0.402211 0.0
-1.58832 0.464286 0.0
-1.61504 0.598581 0.0
-1.59683 0.64359 0.0
-1.57899 0.274107 0.0
-1.56176 0.322381 0.0
-1.54812 0 0.0
-1.53378 0.0357143 0.0
-1.54593 0.147619 0.0
-1.53385 0.0732143 0.0
-1.53393 0.110714 0.0
-1.58522 0.704286 0.0
-1.58709 0.745 0.0
-1.58896 0.785714 0.0
-1.60695 0.830357 0.0
-1.60707 0.892857 0.0
-1.59993 1 0.0
-1.58454 0.965385 0.0
-1.57135 0.928571 0.0
-1.55209 0.241071 0.0
-1.5291 0.198214 0.0
-1.56936 0.570918 0.0
-1.54369 0.517857 0.0
-1.5464 0.380952 0.0
-1.54564 0.427721 0.0
-1.54488 0.47449 0.0
-1.55026 0.606122 0.0
-1.54222 0.677143 0.0
-1.52943 0.282857 0.0
-1.52143 0.33619 0.0
-1.49792 0 0.0
-1.49802 0.05 0.0
-1.49822 0.15 0.0
-1.49312 0.1 0.0
-1.5423 0.717143 0.0
-1.54419 0.767857 0.0
-1.54727 0.819048 0.0
-1.57122 0.861905 0.0
-1.53553 0.914286 0.0
-1.54992 1 0.0
-1.53563 0.964286 0.0
-1.49842 0.25 0.0
-1.48831 0.2 0.0
-1.5214 0.558929 0.0
-1.49891 0.5 0.0
-1.49871 0.4 0.0
-1.47631 0.45 0.0
-1.49911 0.6 0.0
-1.49921 0.65 0.0
-1.49931 0.7 0.0
-1.48111 0.35 0.0
-1.48351 0.3 0.0
-1.44771 0 0.0
-1.44782 0.05 0.0
-1.44804 0.15 0.0
-1.44793 0.1 0.0
-1.49941 0.75 0.0
-1.49951 0.8 0.0
-1.49981 0.95 0.0
-1.49961 0.85 0.0
-1.49971 0.9 0.0
-1.49991 1 0.0
-1.44826 0.25 0.0
-1.43815 0.2 0.0
-1.47151 0.55 0.0
-1.44881 0.5 0.0
-1.44859 0.4 0.0
-1.42619 0.45 0.0
-1.44913 0.65 0.0
-1.44902 0.6 0.0
-1.44935 0.75 0.0
-1.44924 0.7 0.0
-1.43972 0.35 0.0
-1.43336 0.3 0.0
-1.3975 0 0.0
-1.39762 0.05 0.0
-1.39786 0.15 0.0
-1.39274 0.1 0.0
-1.44957 0.85 0.0
-1.44946 0.8 0.0
-1.4523 0.95 0.0
-1.44968 0.9 0.0
-1.4499 1 0.0
-1.3981 0.25 0.0
-1.38798 0.2 0.0
-1.42141 0.55 0.0
-1.3987 0.5 0.0
-1.39834 0.35 0.0
-1.37845 0.4 0.0
-1.37607 0.45 0.0
-1.40784 0.65 0.0
-1.39894 0.6 0.0
-1.41185 0.75 0.0
-1.39918 0.7 0.0
-1.38322 0.3 0.0
-1.34729 0 0.0
-1.34492 0.05 0.0
-1.34018 0.15 0.0
-1.34255 0.1 0.0
-1.40707 0.85 0.0
-1.39941 0.8 0.0
-1.39977 0.95 0.0
-1.39965 0.9 0.0
-1.39989 1 0.0
-1.33781 0.2 0.0
-1.33544 0.25 0.0
-1.37131 0.55 0.0
-1.34859 0.5 0.0
-1.33833 0.4 0.0
-1.3307 0.35 0.0
-1.32595 0.45 0.0
-1.34885 0.6 0.0
-1.36655 0.65 0.0
-1.36179 0.75 0.0
-1.34911 0.7 0.0
-1.33307 0.3 0.0
-1.29708 0 0.0
-1.29722 0.05 0.0
-1.2975 0.15 0.0
-1.29236 0.1 0.0
-1.35703 0.85 0.0
-1.34937 0.8 0.0
-1.34988 1 0.0
-1.34962 0.9 0.0
-1.35226 0.95 0.0
-1.28528 0.25 0.0
-1.28764 0.2 0.0
-1.28931 0.35 0.0
-1.32121 0.55 0.0
-1.29848 0.5 0.0
-1.28709 0.45 0.0
-1.2982 0.4 0.0
-1.29876 0.6 0.0
-1.31647 0.65 0.0
-1.29918 0.75 0.0
-1.29904 0.7 0.0
-1.28292 0.3 0.0
-1.24687 0 0.0
-1.24702 0.05 0.0
-1.24717 0.1 0.0
-1.24732 0.15 0.0
-1.29946 0.85 0.0
-1.29932 0.8 0.0
-1.29987 1 0.0
-1.29974 0.95 0.0
-1.30462 0.9 0.0
-1.24762 0.25 0.0
-1.23747 0.2 0.0
-1.24792 0.35 0.0
-1.22807 0.4 0.0
-1.27111 0.55 0.0
-1.24837 0.5 0.0
-1.24822 0.45 0.0
-1.24867 0.6 0.0
-1.26639 0.65 0.0
-1.26167 0.75 0.0
-1.24897 0.7 0.0
-1.23277 0.3 0.0
-1.19667 0 0.0
-1.19683 0.05 0.0
-1.18964 0.15 0.0
-1.19198 0.1 0.0
-1.25695 0.85 0.0
-1.24927 0.8 0.0
-1.25223 0.95 0.0
-1.24987 1 0.0
-1.24957 0.9 0.0
-1.1873 0.2 0.0
-1.18496 0.25 0.0
-1.18028 0.35 0.0
-1.17794 0.4 0.0
-1.1981 0.45 0.0
-1.19842 0.55 0.0
-1.19826 0.5 0.0
-1.19858 0.6 0.0
-1.19874 0.65 0.0
-1.19906 0.75 0.0
-1.1989 0.7 0.0
-1.18262 0.3 0.0
-1.14646 0 0.0
-1.14663 0.05 0.0
-1.1418 0.1 0.0
-1.13713 0.2 0.0
-1.14697 0.15 0.0
-1.20691 0.85 0.0
-1.20926 0.8 0.0
-1.20221 0.95 0.0
-1.19986 1 0.0
-1.20456 0.9 0.0
-1.13997 0.3 0.0
-1.14731 0.25 0.0
-1.13781 0.4 0.0
-1.13014 0.35 0.0
-1.12548 0.45 0.0
-1.14815 0.5 0.0
-1.15962 0.55 0.0
-1.14849 0.6 0.0
-1.15745 0.65 0.0
-1.16155 0.75 0.0
-1.14917 0.8 0.0
-1.14883 0.7 0.0
-1.09625 0 0.0
-1.09661 0.1 0.0
-1.09393 0.05 0.0
-1.09697 0.2 0.0
-1.08929 0.15 0.0
-1.15687 0.85 0.0
-1.14985 1 0.0
-1.15219 0.95 0.0
-1.14951 0.9 0.0
-1.09733 0.3 0.0
-1.08465 0.25 0.0
-1.09769 0.4 0.0
-1.08 0.35 0.0
-1.08661 0.45 0.0
-1.09804 0.5 0.0
-1.12082 0.55 0.0
-1.10916 0.8 0.0
-1.10629 0.7 0.0
-1.0984 0.6 0.0
-1.11616 0.65 0.0
-1.11149 0.75 0.0
-1.04604 0 0.0
-1.04623 0.05 0.0
-1.04642 0.1 0.0
-1.0468 0.2 0.0
-1.03911 0.15 0.0
-1.09948 0.9 0.0
-1.0993 0.85 0.0
-1.09984 1 0.0
-1.09966 0.95 0.0
-1.04718 0.3 0.0
-1.03449 0.25 0.0
-1.04756 0.4 0.0
-1.02986 0.35 0.0
-1.04775 0.45 0.0
-1.04794 0.5 0.0
-1.04813 0.55 0.0
-1.05911 0.8 0.0
-1.04831 0.6 0.0
-1.06376 0.7 0.0
-1.0485 0.65 0.0
-1.04888 0.75 0.0
-0.995833 0 0.0
-0.991231 0.1 0.0
-0.996033 0.05 0.0
-0.986629 0.2 0.0
-0.98893 0.15 0.0
-1.05447 0.9 0.0
-1.04926 0.85 0.0
-1.04983 1 0.0
-1.04964 0.95 0.0
-0.984328 0.25 0.0
-0.99703 0.3 0.0
-0.997429 0.4 0.0
-0.997628 0.45 0.0
-0.979726 0.35 0.0
-0.997827 0.5 0.0
-0.998027 0.55 0.0
-0.998226 0.6 0.0
-0.961416 0.475 0.0
-1.00907 0.8 0.0
-0.998426 0.65 0.0
-0.998625 0.7 0.0
-1.01138 0.75 0.0
-0.945625 0 0.0
-0.946044 0.1 0.0
-0.943334 0.05 0.0
-0.946463 0.2 0.0
-0.938752 0.15 0.0
-1.00444 0.9 0.0
-1.00675 0.85 0.0
-0.999821 1 0.0
-1.00213 0.95 0.0
-0.93417 0.25 0.0
-0.946881 0.3 0.0
-0.9473 0.4 0.0
-0.929588 0.35 0.0
-0.925005 0.45 0.0
-0.960371 0.525 0.0
-0.959325 0.575 0.0
-0.958279 0.625 0.0
-0.922714 0.5 0.0
-0.959017 0.8 0.0
-0.957233 0.675 0.0
-0.952999 0.7125 0.0
-0.948766 0.75 0.0
-0.895417 0 0.0
-0.895855 0.1 0.0
-0.893136 0.05 0.0
-0.896294 0.2 0.0
-0.888573 0.15 0.0
-0.949184 0.85 0.0
-0.954415 0.9 0.0
-0.949812 1 0.0
-0.949603 0.95 0.0
-0.884011 0.25 0.0
-0.896733 0.3 0.0
-0.874887 0.45 0.0
-0.879449 0.35 0.0
-0.897171 0.4 0.0
-0.920423 0.55 0.0
-0.918132 0.6 0.0
-0.915841 0.65 0.0
-0.872606 0.5 0.0
-0.908968 0.8 0.0
-0.91355 0.7 0.0
-0.898707 0.75 0.0
-0.845208 0 0.0
-0.845438 0.05 0.0
-0.845667 0.1 0.0
-0.845896 0.15 0.0
-0.833853 0.25 0.0
-0.846126 0.2 0.0
-0.899146 0.85 0.0
-0.904386 0.9 0.0
-0.899584 0.95 0.0
-0.899804 1 0.0
-0.838062 0.35 0.0
[...]
POINT_DATA 10839
VECTORS Velocity float
0.21 0 0.0
0.24 0 0.0
0.2275 0 0.0
0.2475 0 0.0
0.25 0 0.0
0.2475 0 0.0
0 0 0.0
0.0475 0 0.0
0.1275 0 0.0
0.09 0 0.0
0.09 0 0.0
0.1275 0 0.0
0.1875 0 0.0
0.16 0 0.0
0.195557 -2.4055e-05 0.0
0.242841 -3.28442e-05 0.0
0.215776 -2.86442e-05 0.0
0.231406 -3.23004e-05 0.0
0.248725 -3.49735e-05 0.0
0.24 0 0.0
0.24284 -3.27699e-05 0.0
0.24852 -3.36798e-05 0.0
0 0 0.0
0.0622239 -4.17579e-06 0.0
0.0322269 -2.75964e-06 0.0
0.16 0 0.0
0.1875 0 0.0
0.21 0 0.0
0.2275 0 0.0
0.193592 -2.70012e-05 0.0
0.138887 -1.49712e-05 0.0
0 0 0.0
0.0475 0 0.0
0.0998415 -1.03875e-05 0.0
0.0622206 -4.22252e-06 0.0
0.0998462 -1.0855e-05 0.0
0.138891 -1.5106e-05 0.0
0.17438 -3.7914e-05 0.0
0.201606 -5.19723e-05 0.0
0.235787 -6.34967e-05 0.0
0.244085 -6.64507e-05 0.0
0.223602 -8.51456e-05 0.0
0.249751 -6.94342e-05 0.0
0.249044 -7.73806e-05 0.0
0.231404 -3.28256e-05 0.0
0.244081 -6.56616e-05 0.0
0 0 0.0
0.036108 -5.34735e-06 0.0
0.0736127 -1.49624e-05 0.0
0.0622491 -1.64063e-05 0.0
0.17437 -3.73527e-05 0.0
0.220162 -5.19619e-05 0.0
0.201594 -5.20478e-05 0.0
0.115548 -2.23647e-05 0.0
0.146676 -3.46896e-05 0.0
0 0 0.0
0.0360874 -3.59822e-06 0.0
0.0693661 -1.16891e-05 0.0
0.0899835 -2.32333e-05 0.0
0.109391 -3.14529e-05 0.0
0.146692 -3.40216e-05 0.0
0.178902 -6.36352e-05 0.0
0.206293 -8.32717e-05 0.0
0.214501 -0.000112306 0.0
0.238527 -9.96074e-05 0.0
0.24735 -0.000103738 0.0
0.229607 -0.000126857 0.0
0.226323 -8.94725e-05 0.0
0.249983 -0.000104254 0.0
0.246426 -0.000101418 0.0
0.23668 -9.54684e-05 0.0
0 0 0.0
0.0322505 -6.05154e-06 0.0
0.0956966 -3.57461e-05 0.0
0.0694293 -2.69448e-05 0.0
0.178876 -6.26617e-05 0.0
0.206269 -8.38982e-05 0.0
0.127476 -4.82779e-05 0.0
0.165873 -7.93503e-05 0.0
0.152325 -5.67652e-05 0.0
0 0 0.0
0.0360796 -5.17889e-06 0.0
0.0621958 -1.62307e-05 0.0
0.0956299 -3.64165e-05 0.0
0.127525 -4.87482e-05 0.0
0.156661 -7.08891e-05 0.0
0.115601 -5.60111e-05 0.0
0.193626 -0.000117113 0.0
0.218141 -0.000148308 0.0
0.24094 -0.000135193 0.0
0.247737 -0.000140225 0.0
0.25 -0.000141761 0.0
0.234398 -0.000171777 0.0
0.229576 -0.0001251 0.0
0.247727 -0.000139915 0.0
0.240919 -0.000134954 0.0
0 0 0.0
0.0344871 -8.39252e-06 0.0
0.103121 -5.50657e-05 0.0
0.062303 -2.73125e-05 0.0
0.189727 -9.94578e-05 0.0
0.212988 -0.000139092 0.0
0.170534 -0.000107757 0.0
0.144329 -7.99182e-05 0.0
0 0 0.0
0.0398982 -8.9315e-06 0.0
0.0997862 -5.00209e-05 0.0
0.0693212 -2.64975e-05 0.0
0.170624 -0.00010789 0.0
0.144421 -8.16492e-05 0.0
0.124377 -8.28605e-05 0.0
0.18365 -0.000136523 0.0
0.204132 -0.000163551 0.0
0.222038 -0.000192678 0.0
0.249109 -0.0001863 0.0
0.244027 -0.000181319 0.0
0.24912 -0.000186309 0.0
0.238551 -0.000218946 0.0
0.234353 -0.000170765 0.0
0.244883 -0.000196446 0.0
0 0 0.0
0.0322917 -8.89701e-06 0.0
0.0940743 -5.79334e-05 0.0
0.0652174 -3.46038e-05 0.0
0.196696 -0.000149323 0.0
0.217871 -0.000183598 0.0
0.177437 -0.000151638 0.0
0.14869 -0.000105662 0.0
0.120329 -7.38898e-05 0.0
0 0 0.0
0.034391 -8.47204e-06 0.0
0.0716442 -3.46903e-05 0.0
0.152425 -0.000118583 0.0
0.127615 -0.000103037 0.0
0.187579 -0.000169527 0.0
0.211951 -0.00021132 0.0
0.248605 -0.000231513 0.0
0.225686 -0.000239523 0.0
0.249783 -0.000233197 0.0
0.246474 -0.000229255 0.0
0.242065 -0.000268558 0.0
0.23849 -0.00021833 0.0
0 0 0.0
0.033874 -1.11664e-05 0.0
0.0999934 -7.75299e-05 0.0
0.0695452 -4.61465e-05 0.0
0.20626 -0.000197797 0.0
0.222404 -0.000230698 0.0
0.189975 -0.000205685 0.0
0.168253 -0.000165993 0.0
0.143003 -0.000127216 0.0
0.124194 -9.37559e-05 0.0
0.0970838 -6.29076e-05 0.0
0 0 0.0
0.0360211 -1.08057e-05 0.0
0.0673149 -3.72141e-05 0.0
0.130335 -0.000124696 0.0
0.168483 -0.00016681 0.0
0.199473 -0.000217777 0.0
0.218379 -0.000255728 0.0
0.241992 -0.00026922 0.0
0.25 -0.000281056 0.0
0.247989 -0.000277771 0.0
0.229082 -0.000288701 0.0
0.244938 -0.00032016 0.0
0.248741 -0.000295026 0.0
0.234445 -0.000275936 0.0
0 0 0.0
0.0362323 -1.4416e-05 0.0
0.12266 -0.000127883 0.0
0.0712296 -5.46558e-05 0.0
0.208349 -0.000242239 0.0
0.225126 -0.00028852 0.0
0.198047 -0.000251672 0.0
0.177724 -0.000208273 0.0
0.146525 -0.000153434 0.0
0.119131 -0.000107061 0.0
0.0970508 -7.14336e-05 0.0
0 0 0.0
0.034939 -1.21095e-05 0.0
0.0672776 -4.19411e-05 0.0
0.152302 -0.00017458 0.0
0.178018 -0.000213211 0.0
0.210117 -0.000269888 0.0
0.244858 -0.000320085 0.0
0.24942 -0.000328838 0.0
0.232226 -0.000339997 0.0
0.244197 -0.000364575 0.0
0.249988 -0.000389262 0.0
0.249132 -0.000345619 0.0
0.235912 -0.000330877 0.0
0.212964 -0.000330028 0.0
0 0 0.0
0.0371611 -1.70023e-05 0.0
0.141112 -0.000178249 0.0
0.0999589 -0.000107657 0.0
0.0666003 -5.32972e-05 0.0
0.213628 -0.000295113 0.0
0.186606 -0.000256908 0.0
0.165083 -0.000208962 0.0
0.122239 -0.000128557 0.0
0.0928653 -7.84373e-05 0.0
0 0 0.0
0.0349094 -1.35325e-05 0.0
0.0642263 -4.45737e-05 0.0
0.165599 -0.000223469 0.0
0.186969 -0.000262691 0.0
0.158126 -0.000233983 0.0
0.247091 -0.000374455 0.0
0.248691 -0.00043078 0.0
0.231053 -0.000382109 0.0
0.240526 -0.000407846 0.0
0.248758 -0.00043041 0.0
0.240202 -0.000380987 0.0
0.229255 -0.000374439 0.0
0.199183 -0.000323197 0.0
0.218636 -0.000386494 0.0
0 0 0.0
0.0346488 -1.66898e-05 0.0
0.126172 -0.000173358 0.0
0.0681791 -6.02737e-05 0.0
0.0988216 -0.000117327 0.0
0.208081 -0.000337972 0.0
0.189758 -0.000294579 0.0
0.168124 -0.000244416 0.0
0.140618 -0.000176892 0.0
0.0954077 -9.34097e-05 0.0
0 0 0.0
0.0332534 -1.3859e-05 0.0
0.0660553 -5.31162e-05 0.0
0.183225 -0.000305475 0.0
0.159265 -0.000262049 0.0
0.244898 -0.000444281 0.0
0.24966 -0.000487904 0.0
0.235962 -0.000447504 0.0
0.244859 -0.000473036 0.0
0.249378 -0.000486675 0.0
0.238619 -0.00044998 0.0
0.218418 -0.000406706 0.0
0.203106 -0.000377396 0.0
0.223372 -0.000442163 0.0
0 0 0.0
0.0478062 -3.33631e-05 0.0
0.127924 -0.000197804 0.0
0.0904262 -0.000110173 0.0
0.202606 -0.000363537 0.0
0.177964 -0.000298907 0.0
0.147885 -0.000224177 0.0
0.118718 -0.000146824 0.0
0.0780256 -7.8409e-05 0.0
0 0 0.0
0.0342316 -1.63383e-05 0.0
0.187835 -0.000361968 0.0
0.160404 -0.000291746 0.0
0.246451 -0.000508028 0.0
0.25 -0.000547523 0.0
0.240141 -0.000516969 0.0
0.247578 -0.000570103 0.0
0.239858 -0.000516599 0.0
0.22729 -0.000478307 0.0
0.209726 -0.000425483 0.0
0.227726 -0.000502035 0.0
0.210292 -0.000443374 0.0
0 0 0.0
0.04787 -3.72181e-05 0.0
0.12802 -0.00022095 0.0
0.0905091 -0.000121179 0.0
0.187167 -0.00036011 0.0
0.159615 -0.000282169 0.0
0.0471978 -3.26965e-05 0.0
0.12708 -0.000195072 0.0
0.0895867 -0.000107817 0.0
0 0 0.0
0.187911 -0.000406992 0.0
0.160495 -0.000326696 0.0
0.247419 -0.000576664 0.0
0.249999 -0.000617188 0.0
0.240174 -0.000583095 0.0
0.247595 -0.000641182 0.0
0.227243 -0.000538831 0.0
0.239825 -0.00058202 0.0
0.18709 -0.000404781 0.0
0.209663 -0.00047899 0.0
0.227767 -0.000551344 0.0
0.210358 -0.000498601 0.0
0 0 0.0
0.0479401 -4.08239e-05 0.0
0.128127 -0.000245766 0.0
0.0906215 -0.00013594 0.0
0.126984 -0.000218703 0.0
0.159527 -0.000316768 0.0
0.0471383 -3.62607e-05 0.0
0.0894962 -0.000119871 0.0
0 0 0.0
0.187999 -0.000454699 0.0
0.160598 -0.000364329 0.0
0.247402 -0.000647536 0.0
0.249999 -0.000691727 0.0
0.227812 -0.000604996 0.0
0.240226 -0.0006823 0.0
0.247614 -0.000717848 0.0
0.227197 -0.000590157 0.0
0.239788 -0.000652262 0.0
0.187026 -0.000439136 0.0
0.209591 -0.000536093 0.0
0.210432 -0.000557562 0.0
0 0 0.0
0.0480224 -4.54043e-05 0.0
0.128266 -0.000276546 0.0
0.090736 -0.00015019 0.0
0.126894 -0.000238962 0.0
0.159427 -0.000352859 0.0
0.047066 -4.02735e-05 0.0
0.0893959 -0.000132352 0.0
0 0 0.0
0.160713 -0.000404269 0.0
0.188122 -0.000518604 0.0
0.247381 -0.000723509 0.0
0.249999 -0.000771746 0.0
0.24026 -0.000745235 0.0
0.227897 -0.00070001 0.0
0.247636 -0.000799165 0.0
0.239746 -0.000727112 0.0
0.227148 -0.000646146 0.0
0.186931 -0.000488639 0.0
0.209511 -0.000596803 0.0
0.210515 -0.000621307 0.0
0 0 0.0
0.0481053 -5.00957e-05 0.0
0.128381 -0.000301599 0.0
0.0908624 -0.000165741 0.0
0.126778 -0.000264494 0.0
0.159315 -0.000391846 0.0
0 0 0.0
0.0892839 -0.000146378 0.0
0.0469932 -4.42469e-05 0.0
0.188234 -0.000576957 0.0
0.160841 -0.000448209 0.0
0.227955 -0.000763401 0.0
0.247359 -0.000805891 0.0
0.249998 -0.000858442 0.0
0.247654 -0.000867758 0.0
0.240298 -0.000811043 0.0
0.2397 -0.000808234 0.0
0.227082 -0.000718683 0.0
0.186797 -0.000555408 0.0
0.209421 -0.000663187 0.0
0.210608 -0.000689426 0.0
0 0 0.0
0.0481996 -5.52383e-05 0.0
0.0909878 -0.000180648 0.0
0.128529 -0.000332792 0.0
0.126627 -0.000296275 0.0
0.159191 -0.000433714 0.0
0 0 0.0
0.0469058 -4.86486e-05 0.0
0.0891742 -0.000159293 0.0
0.188328 -0.000622386 0.0
0.160984 -0.000495967 0.0
0.228018 -0.000831481 0.0
0.24037 -0.000937175 0.0
0.247333 -0.000895235 0.0
0.249997 -0.000951873 0.0
0.247675 -0.000939955 0.0
0.239647 -0.00089604 0.0
0.227007 -0.000797388 0.0
0.186706 -0.000599525 0.0
0.20932 -0.00073394 0.0
0.210712 -0.000764086 0.0
0 0 0.0
0.0483046 -6.0665e-05 0.0
0.12872 -0.000373539 0.0
0.0911574 -0.00020185 0.0
0.126503 -0.000321986 0.0
0.159052 -0.000479019 0.0
0.0468186 -5.28115e-05 0.0
0 0 0.0
0.0890263 -0.000176689 0.0
0.161142 -0.000548014 0.0
0.188499 -0.000704705 0.0
0.228136 -0.000953024 0.0
0.240431 -0.00103895 0.0
0.247702 -0.00104158 0.0
0.247291 -0.00103595 0.0
0.249996 -0.00105526 0.0
0.239588 -0.000993592 0.0
0.226894 -0.00091241 0.0
0.18654 -0.000678101 0.0
0.209208 -0.000812208 0.0
0.210827 -0.000844849 0.0
0 0 0.0
0.0484191 -6.6602e-05 0.0
0.0913273 -0.000221505 0.0
0.161316 -0.00060326 0.0
0.128876 -0.000405186 0.0
0.126344 -0.000354378 0.0
0.15893 -0.000517975 0.0
0.0467173 -5.82595e-05 0.0
0 0 0.0
0.0888911 -0.000192554 0.0
0.210934 -0.000919777 0.0
0.188615 -0.000760648 0.0
0.240483 -0.00112488 0.0
0.228233 -0.001056 0.0
0.247749 -0.00120242 0.0
0.249995 -0.00116643 0.0
0.247265 -0.00111979 0.0
0.239523 -0.00109785 0.0
0.226815 -0.00099036 0.0
0.186428 -0.000729957 0.0
0.158729 -0.000582229 0.0
0.209084 -0.000896008 0.0
0 0 0.0
0.0914977 -0.000242318 0.0
0.0485539 -7.41261e-05 0.0
0.16147 -0.000653959 0.0
0.129107 -0.00045479 0.0
0.126168 -0.000390139 0.0
0 0 0.0
0.0466064 -6.3919e-05 0.0
0.0887111 -0.000213446 0.0
0.211053 -0.000999282 0.0
0.188824 -0.00086222 0.0
0.24054 -0.00121735 0.0
0.228342 -0.00116731 0.0
0.247776 -0.00130131 0.0
0.249993 -0.00128911 0.0
0.247237 -0.00121193 0.0
0.158579 -0.000626595 0.0
0.208968 -0.000973295 0.0
0.23945 -0.00121078 0.0
0.226729 -0.00107522 0.0
0.186267 -0.000805056 0.0
0 0 0.0
0.0486868 -8.09373e-05 0.0
0.0917013 -0.000266543 0.0
0.161681 -0.000720505 0.0
0.129334 -0.000501753 0.0
0.0885291 -0.000233631 0.0
0.125943 -0.000434946 0.0
0 0 0.0
0.046479 -7.05128e-05 0.0
0.211204 -0.00110295 0.0
0.189015 -0.000952329 0.0
0.240617 -0.001344 0.0
0.228462 -0.00128966 0.0
0.247806 -0.00140705 0.0
0.249992 -0.00142447 0.0
0.247178 -0.00139559 0.0
0.158377 -0.000688988 0.0
0.23937 -0.00133679 0.0
0.208841 -0.0010545 0.0
0.226575 -0.00122825 0.0
0.18604 -0.000910955 0.0
0 0 0.0
0.0919515 -0.000296805 0.0
0.0488405 -8.91301e-05 0.0
0.161961 -0.000809592 0.0
0.129582 -0.000553412 0.0
0.0883507 -0.000254172 0.0
0.125725 -0.000479049 0.0
0 0 0.0
0.0463443 -7.74862e-05 0.0
0.189224 -0.00105244 0.0
0.211372 -0.00121807 0.0
0.240703 -0.00148539 0.0
0.247849 -0.00155067 0.0
0.228594 -0.00142356 0.0
0.24999 -0.00156952 0.0
0.247133 -0.00154282 0.0
0.239282 -0.00147218 0.0
0.249559 -0.00168266 0.0
0.158151 -0.000757422 0.0
0.226443 -0.00135485 0.0
0.208625 -0.00119559 0.0
0.185889 -0.000979022 0.0
0 0 0.0
0.0921805 -0.000324584 0.0
0.049021 -9.93524e-05 0.0
0.16217 -0.0008769 0.0
0.129856 -0.000610419 0.0
0.0881342 -0.000278884 0.0
0.125523 -0.000519349 0.0
0 0 0.0
0.0462053 -8.47266e-05 0.0
0.189455 -0.0011618 0.0
0.211558 -0.00134518 0.0
0.240794 -0.0016377 0.0
0.22874 -0.00157346 0.0
0.247915 -0.00179008 0.0
0.249164 -0.00168218 0.0
0.243771 -0.00163239 0.0
0.233388 -0.00153312 0.0
0.249984 -0.00182034 0.0
0.157905 -0.000832551 0.0
0.21802 -0.00138828 0.0
0.203214 -0.00125547 0.0
0.185613 -0.00110179 0.0
0 0 0.0
0.092455 -0.000358001 0.0
0.0492083 -0.000108969 0.0
0.162453 -0.000968548 0.0
0.13016 -0.0006743 0.0
0.125223 -0.000578886 0.0
0.0878955 -0.000306522 0.0
0 0 0.0
0.0460374 -9.27656e-05 0.0
0.189712 -0.00128371 0.0
0.211763 -0.00148585 0.0
0.247964 -0.00197312 0.0
0.228901 -0.00173747 0.0
0.240901 -0.00180896 0.0
0.247049 -0.00179704 0.0
0.239118 -0.0017198 0.0
0.226196 -0.00158997 0.0
0.249976 -0.00200717 0.0
0.157631 -0.000916426 0.0
0.208296 -0.00140841 0.0
0.185363 -0.00121291 0.0
0 0 0.0
0.0494057 -0.000119477 0.0
0.0927592 -0.00039598 0.0
0.130443 -0.000733542 0.0
0.189994 -0.00141677 0.0
0.162767 -0.00107022 0.0
0.124932 -0.000636221 0.0
0.0876328 -0.000337124 0.0
0.0458592 -0.000101968 0.0
0 0 0.0
0.229046 -0.00188712 0.0
0.21199 -0.00164373 0.0
0.248008 -0.00213165 0.0
0.241012 -0.00200015 0.0
0.226024 -0.00174952 0.0
0.246984 -0.00197987 0.0
0.238996 -0.00189402 0.0
0.249971 -0.00221308 0.0
0.185093 -0.00133264 0.0
0.157269 -0.00102465 0.0
0.208002 -0.00159402 0.0
0 0 0.0
0.0496347 -0.000132625 0.0
0.0931324 -0.000442201 0.0
0.130808 -0.000809908 0.0
0.190225 -0.00153137 0.0
0.163187 -0.00121234 0.0
0.124615 -0.000698251 0.0
0.0873161 -0.000373962 0.0
0.0456655 -0.000111645 0.0
0 0 0.0
0.124264 -0.000768548 0.0
0.229202 -0.00204416 0.0
0.212319 -0.00187816 0.0
0.241187 -0.0023023 0.0
0.248054 -0.00229937 0.0
0.225765 -0.00198905 0.0
0.238867 -0.00208359 0.0
0.246915 -0.00218305 0.0
0.249957 -0.00244021 0.0
0.184794 -0.0014642 0.0
0.156932 -0.00112942 0.0
0.207751 -0.00175613 0.0
0 0 0.0
0.0498876 -0.000146516 0.0
0.0935107 -0.000490099 0.0
0.131213 -0.00089763 0.0
0.190564 -0.00169304 0.0
0.163583 -0.0013451 0.0
0.0454483 -0.000123961 0.0
0.0869933 -0.000412375 0.0
0 0 0.0
0.123941 -0.000830912 0.0
0.22941 -0.00226487 0.0
0.212605 -0.00208148 0.0
0.241328 -0.00254442 0.0
0.248113 -0.00254154 0.0
0.225583 -0.00215329 0.0
0.238723 -0.00229196 0.0
0.249945 -0.00269231 0.0
0.246797 -0.00251251 0.0
0.184548 -0.00156829 0.0
0.156563 -0.00124098 0.0
0.207474 -0.0019282 0.0
0 0 0.0
0.0501655 -0.000161787 0.0
0.0939276 -0.000542531 0.0
0.131732 -0.00101004 0.0
0.191032 -0.00192512 0.0
0.212917 -0.00231064 0.0
0.164018 -0.00149569 0.0
0.045226 -0.000135647 0.0
0.0866426 -0.00045313 0.0
0 0 0.0
0.123527 -0.000912243 0.0
0.229718 -0.00259425 0.0
0.241447 -0.00276253 0.0
0.248178 -0.00280867 0.0
0.249928 -0.00290088 0.0
0.225392 -0.00232546 0.0
0.238555 -0.00252498 0.0
0.246701 -0.00276742 0.0
0.156157 -0.00136338 0.0
0.184195 -0.00172136 0.0
0.207166 -0.002116 0.0
0 0 0.0
0.0504952 -0.000181395 0.0
0.0943957 -0.000605643 0.0
0.132242 -0.00112732 0.0
0.19135 -0.00208741 0.0
0.213259 -0.0025626 0.0
0.164503 -0.00166557 0.0
0.0449675 -0.000148738 0.0
0.0862565 -0.000497757 0.0
0 0 0.0
0.155807 -0.00146124 0.0
0.0858354 -0.000543866 0.0
0.123002 -0.00101242 0.0
0.229974 -0.00289009 0.0
0.241571 -0.00298885 0.0
0.248272 -0.00324668 0.0
0.249914 -0.00311966 0.0
0.246618 -0.00298444 0.0
0.225134 -0.00255138 0.0
0.238298 -0.00288473 0.0
0.183703 -0.00192729 0.0
0.206881 -0.00229369 0.0
0.230204 -0.00314425 0.0
0 0 0.0
0.0508444 -0.000202672 0.0
0.13281 -0.0012622 0.0
0.0949173 -0.000679378 0.0
0.213639 -0.002856 0.0
0.191923 -0.0023879 0.0
0.16504 -0.00185941 0.0
0.0446714 -0.000163401 0.0
0 0 0.0
0.183377 -0.00206543 0.0
0.15533 -0.00159913 0.0
0.122496 -0.00110918 0.0
0.044356 -0.000180502 0.0
0.0853713 -0.000596263 0.0
0.241743 -0.00331337 0.0
0.248325 -0.00351295 0.0
0.249878 -0.00344221 0.0
0.24985 -0.00371 0.0
0.246522 -0.00321436 0.0
0.224842 -0.00280136 0.0
0.238074 -0.00317166 0.0
0.206569 -0.00247224 0.0
0.230439 -0.00342747 0.0
0.0512189 -0.000227728 0.0
0 0 0.0
0.133343 -0.0013903 0.0
0.0954986 -0.000762642 0.0
0.21405 -0.00318398 0.0
0.19231 -0.00259791 0.0
0.165638 -0.00208418 0.0
0 0 0.0
0.182909 -0.00225014 0.0
0.1547 -0.00177122 0.0
0.122036 -0.00118767 0.0
0.0440341 -0.000196181 0.0
0.0848687 -0.000649795 0.0
0.241991 -0.00383319 0.0
0.248378 -0.00379287 0.0
0.249808 -0.00399123 0.0
0.246319 -0.00368454 0.0
0.224524 -0.0030669 0.0
0.237834 -0.00348201 0.0
0.206041 -0.00277818 0.0
0.230762 -0.00381866 0.0
0 0 0.0
0.051658 -0.000258885 0.0
0.134037 -0.00156739 0.0
0.096091 -0.000853236 0.0
0.166301 -0.00233895 0.0
0.214502 -0.00356107 0.0
0.193012 -0.00298888 0.0
0 0 0.0
0 0 0.0
0.182391 -0.00245188 0.0
0.154118 -0.00192773 0.0
0.121446 -0.00129067 0.0
0.0843233 -0.000705221 0.0
0.0436651 -0.000212487 0.0
0.242182 -0.00425628 0.0
0.248435 -0.00419955 0.0
0.237613 -0.00374876 0.0
0.249743 -0.00440047 0.0
0.246142 -0.00405805 0.0
0.224163 -0.00335894 0.0
0.205578 -0.00302885 0.0
0.242335 -0.00463584 0.0
0.231089 -0.00425874 0.0
0.0521513 -0.000292282 0.0
0.096819 -0.000963517 0.0
0.13482 -0.00177864 0.0
0.166888 -0.00258114 0.0
0.214996 -0.00398499 0.0
0.193478 -0.00327386 0.0
0 0 0.0
0 0 0.0
0.153618 -0.00204683 0.0
0.181675 -0.0027099 0.0
0.0837935 -0.00075294 0.0
0.120708 -0.00140911 0.0
0.0432632 -0.000231204 0.0
0.248515 -0.00485106 0.0
0.249647 -0.00485711 0.0
0.205072 -0.00329478 0.0
0.237367 -0.00402678 0.0
0.24599 -0.00437129 0.0
0.223608 -0.00377985 0.0
0.242497 -0.00503341 0.0
0.231587 -0.004943 0.0
0.215525 -0.00447277 0.0
0.0527506 -0.000336084 0.0
0.0976501 -0.00110465 0.0
0.135838 -0.00206629 0.0
0.167694 -0.00291544 0.0
0.194327 -0.00380478 0.0
0 0 0.0
0 0 0.0
0.1528 -0.00223628 0.0
0.181033 -0.00293488 0.0
0.0831009 -0.000813879 0.0
0.12001 -0.00151155 0.0
0.0428142 -0.000248261 0.0
0.245812 -0.00470462 0.0
0.249527 -0.00534793 0.0
0.248539 -0.00537958 0.0
0.204508 -0.00357384 0.0
0.237028 -0.00440862 0.0
0.223135 -0.00412957 0.0
0.18033 -0.0031628 0.0
0.242761 -0.00583531 0.0
0 0 0.0
0.231953 -0.00554334 0.0
0.195084 -0.00431266 0.0
0.21609 -0.00502325 0.0
0.0533833 -0.000388782 0.0
0.136696 -0.00232816 0.0
0.0987074 -0.00130062 0.0
0.168774 -0.00341871 0.0
0 0 0.0
0 0 0.0
0 0 0.0
0 0 0.0
0 0 0.0
0.0423782 -0.000262512 0.0
0.119256 -0.0016163 0.0
0.152048 -0.0024009 0.0
0.0824915 -0.000863773 0.0
0.245545 -0.00515507 0.0
0.249366 -0.00589144 0.0
0.248553 -0.00596086 0.0
0.222699 -0.00441529 0.0
0.203876 -0.00386697 0.0
0.236454 -0.004984 0.0
0.20329 -0.00412331 0.0
0.179754 -0.00333177 0.0
0.242929 -0.00650382 0.0
0.23234 -0.00620087 0.0
0 0 0.0
9.03093e-05 -4.09619e-05 0.0
0 0 0.0
-0.000236255 0.0010617 0.0
0.216699 -0.00566285 0.0
0.195702 -0.0047401 0.0
0.0541861 -0.0004606 0.0
0.137817 -0.0026823 0.0
0.0998189 -0.00151976 0.0
0.1698 -0.00392285 0.0
0 0 0.0
0 0 0.0
0 0 0.0
-0.000163036 0.000462498 0.0
1.23255e-05 -0.000164482 0.0
0.000100465 -0.000116847 0.0
0 0 0.0
0.0418868 -0.000279729 0.0
0.118578 -0.00169897 0.0
0.151233 -0.00256128 0.0
0.0817044 -0.000920961 0.0
0.245234 -0.00565519 0.0
0.249156 -0.00648303 0.0
0.248528 -0.0065958 0.0
0.222218 -0.00472284 0.0
0.236078 -0.00535151 0.0
0.202642 -0.00438043 0.0
0.178709 -0.00361771 0.0
0.243088 -0.0072369 0.0
0.235765 -0.00698702 0.0
0.225591 -0.00658897 0.0
0 0 0.0
0.000180282 -2.8261e-05 0.0
0 0 0.0
0 0 0.0
-0.00086974 0.00268286 0.0
-0.000775316 0.00158926 0.0
0.212539 -0.00608067 0.0
0.19657 -0.0053966 0.0
0.100973 -0.00176212 0.0
0.0550496 -0.000552407 0.0
0.139084 -0.0031208 0.0
0.170919 -0.0045177 0.0
0 0 0.0
-0.000204839 8.51001e-05 0.0
-0.000477099 0.000661928 0.0
-6.0114e-05 -5.95645e-05 0.0
4.38876e-05 2.10303e-05 0.0
0 0 0.0
0.0413693 -0.00029571 0.0
0.117729 -0.00179398 0.0
0.150356 -0.00271188 0.0
0.0809402 -0.000970928 0.0
0.244856 -0.00618885 0.0
0.248894 -0.00712361 0.0
0.248461 -0.00729314 0.0
0.221322 -0.00525806 0.0
0.235648 -0.00572329 0.0
0.2018 -0.00470059 0.0
0.149406 -0.0028721 0.0
0.177775 -0.00385575 0.0
0.243188 -0.00787257 0.0
0.232972 -0.00749179 0.0
0.217789 -0.00698187 0.0
0 0 0.0
0.000123646 4.62556e-05 0.0
0 0 0.0
0 0 0.0
0 0 0.0
0 0 0.0
-0.00133883 0.00172883 0.0
-0.000267121 0.00245918 0.0
-0.000932516 0.00367139 0.0
-0.00212377 0.0049253 0.0
-0.00169057 0.00315692 0.0
0 0 0.0
-9.71194e-05 0.00429526 0.0
0.19773 -0.00639128 0.0
0.171894 -0.00509548 0.0
0 0 0.0
0.056185 -0.000685564 0.0
0.102448 -0.00210837 0.0
0.140748 -0.00379223 0.0
0 0 0.0
0 0 0.0
-0.000701952 0.000684033 0.0
-0.000424813 0.000345542 0.0
-0.000295518 0.00027911 0.0