# vtk DataFile Version 3.0
Mesh NS-CD Problem
ASCII
DATASET UNSTRUCTURED_GRID
POINTS 10839 float
-2 0.3 0.0
-2 0.4 0.0
-2 0.35 0.0
-2 0.45 0.0
-2 0.5 0.0
-2 0.55 0.0
-2 0 0.0
-2 0.05 0.0
-2 0.85 0.0
-2 0.9 0.0
-2 0.1 0.0
-2 0.15 0.0
-2 0.25 0.0
-2 0.2 0.0
-1.96653 0.266667 0.0
-1.96524 0.415385 0.0
-1.96485 0.315 0.0
-1.96348 0.363636 0.0
-1.96414 0.464286 0.0
-2 0.6 0.0
-1.96538 0.584615 0.0
-1.96538 0.538462 0.0
-1.94979 0 0.0
-1.96653 0.0666666 0.0
-1.93306 0.0333333 0.0
-2 0.8 0.0
-2 0.75 0.0
-2 0.7 0.0
-2 0.65 0.0
-1.96249 0.7375 0.0
-1.96666 0.833333 0.0
-2 1 0.0
-2 0.95 0.0
-1.96249 0.8875 0.0
-1.96666 0.933333 0.0
-1.96234 0.1125 0.0
-1.96653 0.166667 0.0
-1.93724 0.225 0.0
-1.92971 0.28 0.0
-1.93048 0.380769 0.0
-1.93048 0.423077 0.0
-1.89958 0.3375 0.0
-1.9292 0.484203 0.0
-1.92117 0.530907 0.0
-1.96363 0.636364 0.0
-1.93076 0.576923 0.0
-1.89958 0 0.0
-1.88703 0.0375 0.0
-1.90963 0.08 0.0
-1.86611 0.0666666 0.0
-1.93749 0.775 0.0
-1.93635 0.672727 0.0
-1.92999 0.72 0.0
-1.93332 0.866667 0.0
-1.92856 0.821429 0.0
-1.94999 1 0.0
-1.92499 0.9625 0.0
-1.92499 0.925 0.0
-1.89998 0.9 0.0
-1.89958 0.125 0.0
-1.92827 0.178571 0.0
-1.89958 0.233333 0.0
-1.89045 0.290909 0.0
-1.86096 0.311538 0.0
-1.89241 0.392857 0.0
-1.89334 0.448489 0.0
-1.85655 0.357143 0.0
-1.89614 0.653846 0.0
-1.89427 0.504121 0.0
-1.8952 0.559753 0.0
-1.89614 0.615385 0.0
-1.84937 0 0.0
-1.83264 0.0333333 0.0
-1.85655 0.107143 0.0
-1.81172 0.075 0.0
-1.89998 0.766667 0.0
-1.89089 0.709091 0.0
-1.87498 0.85 0.0
-1.85998 0.79 0.0
-1.88748 0.8125 0.0
-1.89998 1 0.0
-1.88748 0.9625 0.0
-1.86664 0.933333 0.0
-1.85712 0.892857 0.0
-1.87448 0.15 0.0
-1.86611 0.194444 0.0
-1.83264 0.133333 0.0
-1.83264 0.2625 0.0
-1.82068 0.321429 0.0
-1.85664 0.404762 0.0
-1.85674 0.452381 0.0
-1.85683 0.5 0.0
-1.81184 0.375 0.0
-1.85712 0.642857 0.0
-1.85693 0.547619 0.0
-1.85702 0.595238 0.0
-1.79917 0 0.0
-1.78482 0.0357143 0.0
-1.79917 0.116667 0.0
-1.76569 0.0666666 0.0
-1.85452 0.745455 0.0
-1.82689 0.692308 0.0
-1.81815 0.781818 0.0
-1.82497 0.825 0.0
-1.84997 1 0.0
-1.8333 0.958333 0.0
-1.81247 0.8875 0.0
-1.81247 0.925 0.0
-1.81742 0.218182 0.0
-1.82427 0.175 0.0
-1.77634 0.145455 0.0
-1.79144 0.242308 0.0
-1.78482 0.285714 0.0
-1.77469 0.332653 0.0
-1.81215 0.529762 0.0
-1.81194 0.422619 0.0
-1.81203 0.470238 0.0
-1.76714 0.392857 0.0
-1.81234 0.625 0.0
-1.79732 0.571429 0.0
-1.74896 0 0.0
-1.73222 0.0333333 0.0
-1.75398 0.105 0.0
-1.71883 0.07 0.0
-1.79227 0.730769 0.0
-1.78007 0.679121 0.0
-1.75765 0.769231 0.0
-1.78178 0.818182 0.0
-1.78996 0.86 0.0
-1.79996 1 0.0
-1.78568 0.964286 0.0
-1.76663 0.922222 0.0
-1.76569 0.1875 0.0
-1.73222 0.15 0.0
-1.74896 0.25 0.0
-1.73714 0.304762 0.0
-1.76743 0.537202 0.0
-1.72869 0.343878 0.0
-1.76732 0.485119 0.0
-1.76723 0.440476 0.0
-1.72243 0.410714 0.0
-1.76757 0.607143 0.0
-1.69875 0 0.0
-1.68369 0.035 0.0
-1.69875 0.1125 0.0
-1.66528 0.075 0.0
-1.74341 0.708974 0.0
-1.73324 0.665934 0.0
-1.70441 0.74478 0.0
-1.71423 0.785714 0.0
-1.72303 0.826923 0.0
-1.74541 0.854545 0.0
-1.74541 0.890909 0.0
-1.74996 1 0.0
-1.73745 0.9625 0.0
-1.71359 0.927273 0.0
-1.68716 0.153846 0.0
-1.7131 0.214286 0.0
-1.70725 0.275 0.0
-1.69712 0.321939 0.0
-1.72279 0.589286 0.0
-1.72261 0.5 0.0
-1.7227 0.544643 0.0
-1.6827 0.355102 0.0
-1.67773 0.428571 0.0
-1.70763 0.464286 0.0
-1.70369 0.62449 0.0
-1.64854 0 0.0
-1.63181 0.0375 0.0
-1.64137 0.142857 0.0
-1.61764 0.0769231 0.0
-1.69458 0.703846 0.0
-1.67471 0.657437 0.0
-1.66143 0.727637 0.0
-1.67125 0.768571 0.0
-1.67851 0.821429 0.0
-1.68841 0.861538 0.0
-1.70904 0.890909 0.0
-1.69995 1 0.0
-1.68176 0.963636 0.0
-1.67267 0.927273 0.0
-1.65427 0.187143 0.0
-1.66718 0.231429 0.0
-1.66554 0.3 0.0
-1.67802 0.571429 0.0
-1.67792 0.523809 0.0
-1.6367 0.366327 0.0
-1.63682 0.423469 0.0
-1.62568 0.502976 0.0
-1.6629 0.470238 0.0
-1.65254 0.618367 0.0
-1.6059 0.307143 0.0
-1.59833 0 0.0
-1.58288 0.0384615 0.0
-1.60563 0.169643 0.0
-1.58179 0.112271 0.0
-1.56964 0.0714286 0.0
-1.64574 0.690385 0.0
-1.62827 0.751429 0.0
-1.63371 0.791071 0.0
-1.64279 0.857143 0.0
-1.65378 0.896154 0.0
-1.64994 1 0.0
-1.6363 0.963636 0.0
-1.61916 0.930769 0.0
-1.61345 0.209107 0.0
-1.62126 0.248571 0.0
-1.56989 0.196429 0.0
-1.63324 0.553571 0.0
-1.58846 0.535714 0.0
-1.59408 0.361905 0.0
-1.59161 0.402211 0.0
-1.58832 0.464286 0.0
-1.61504 0.598581 0.0
-1.59683 0.64359 0.0
-1.57899 0.274107 0.0
-1.56176 0.322381 0.0
-1.54812 0 0.0
-1.53378 0.0357143 0.0
-1.54593 0.147619 0.0
-1.53385 0.0732143 0.0
-1.53393 0.110714 0.0
-1.58522 0.704286 0.0
-1.58709 0.745 0.0
-1.58896 0.785714 0.0
-1.60695 0.830357 0.0
-1.60707 0.892857 0.0
-1.59993 1 0.0
-1.58454 0.965385 0.0
-1.57135 0.928571 0.0
-1.55209 0.241071 0.0
-1.5291 0.198214 0.0
-1.56936 0.570918 0.0
-1.54369 0.517857 0.0
-1.5464 0.380952 0.0
-1.54564 0.427721 0.0
-1.54488 0.47449 0.0
-1.55026 0.606122 0.0
-1.54222 0.677143 0.0
-1.52943 0.282857 0.0
-1.52143 0.33619 0.0
-1.49792 0 0.0
-1.49802 0.05 0.0
-1.49822 0.15 0.0
-1.49312 0.1 0.0
-1.5423 0.717143 0.0
-1.54419 0.767857 0.0
-1.54727 0.819048 0.0
-1.57122 0.861905 0.0
-1.53553 0.914286 0.0
-1.54992 1 0.0
-1.53563 0.964286 0.0
-1.49842 0.25 0.0
-1.48831 0.2 0.0
-1.5214 0.558929 0.0
-1.49891 0.5 0.0
-1.49871 0.4 0.0
-1.47631 0.45 0.0
-1.49911 0.6 0.0
-1.49921 0.65 0.0
-1.49931 0.7 0.0
-1.48111 0.35 0.0
-1.48351 0.3 0.0
-1.44771 0 0.0
-1.44782 0.05 0.0
-1.44804 0.15 0.0
-1.44793 0.1 0.0
-1.49941 0.75 0.0
-1.49951 0.8 0.0
-1.49981 0.95 0.0
-1.49961 0.85 0.0
-1.49971 0.9 0.0
-1.49991 1 0.0
-1.44826 0.25 0.0
-1.43815 0.2 0.0
-1.47151 0.55 0.0
-1.44881 0.5 0.0
-1.44859 0.4 0.0
-1.42619 0.45 0.0
-1.44913 0.65 0.0
-1.44902 0.6 0.0
-1.44935 0.75 0.0
-1.44924 0.7 0.0
-1.43972 0.35 0.0
-1.43336 0.3 0.0
-1.3975 0 0.0
-1.39762 0.05 0.0
-1.39786 0.15 0.0
-1.39274 0.1 0.0
-1.44957 0.85 0.0
-1.44946 0.8 0.0
-1.4523 0.95 0.0
-1.44968 0.9 0.0
-1.4499 1 0.0
-1.3981 0.25 0.0
-1.38798 0.2 0.0
-1.42141 0.55 0.0
-1.3987 0.5 0.0
-1.39834 0.35 0.0
-1.37845 0.4 0.0
-1.37607 0.45 0.0
-1.40784 0.65 0.0
-1.39894 0.6 0.0
-1.41185 0.75 0.0
-1.39918 0.7 0.0
-1.38322 0.3 0.0
-1.34729 0 0.0
-1.34492 0.05 0.0
-1.34018 0.15 0.0
-1.34255 0.1 0.0
-1.40707 0.85 0.0
-1.39941 0.8 0.0
-1.39977 0.95 0.0
-1.39965 0.9 0.0
-1.39989 1 0.0
-1.33781 0.2 0.0
-1.33544 0.25 0.0
-1.37131 0.55 0.0
-1.34859 0.5 0.0
-1.33833 0.4 0.0
-1.3307 0.35 0.0
-1.32595 0.45 0.0
-1.34885 0.6 0.0
-1.36655 0.65 0.0
-1.36179 0.75 0.0
-1.34911 0.7 0.0
-1.33307 0.3 0.0
-1.29708 0 0.0
-1.29722 0.05 0.0
-1.2975 0.15 0.0
-1.29236 0.1 0.0
-1.35703 0.85 0.0
-1.34937 0.8 0.0
-1.34988 1 0.0
-1.34962 0.9 0.0
-1.35226 0.95 0.0
-1.28528 0.25 0.0
-1.28764 0.2 0.0
-1.28931 0.35 0.0
-1.32121 0.55 0.0
-1.29848 0.5 0.0
-1.28709 0.45 0.0
-1.2982 0.4 0.0
-1.29876 0.6 0.0
-1.31647 0.65 0.0
-1.29918 0.75 0.0
-1.29904 0.7 0.0
-1.28292 0.3 0.0
-1.24687 0 0.0
-1.24702 0.05 0.0
-1.24717 0.1 0.0
-1.24732 0.15 0.0
-1.29946 0.85 0.0
-1.29932 0.8 0.0
-1.29987 1 0.0
-1.29974 0.95 0.0
-1.30462 0.9 0.0
-1.24762 0.25 0.0
-1.23747 0.2 0.0
-1.24792 0.35 0.0
-1.22807 0.4 0.0
-1.27111 0.55 0.0
-1.24837 0.5 0.0
-1.24822 0.45 0.0
-1.24867 0.6 0.0
-1.26639 0.65 0.0
-1.26167 0.75 0.0
-1.24897 0.7 0.0
-1.23277 0.3 0.0
-1.19667 0 0.0
-1.19683 0.05 0.0
-1.18964 0.15 0.0
-1.19198 0.1 0.0
-1.25695 0.85 0.0
-1.24927 0.8 0.0
-1.25223 0.95 0.0
-1.24987 1 0.0
-1.24957 0.9 0.0
-1.1873 0.2 0.0
-1.18496 0.25 0.0
-1.18028 0.35 0.0
-1.17794 0.4 0.0
-1.1981 0.45 0.0
-1.19842 0.55 0.0
-1.19826 0.5 0.0
-1.19858 0.6 0.0
-1.19874 0.65 0.0
-1.19906 0.75 0.0
-1.1989 0.7 0.0
-1.18262 0.3 0.0
-1.14646 0 0.0
-1.14663 0.05 0.0
-1.1418 0.1 0.0
-1.13713 0.2 0.0
-1.14697 0.15 0.0
-1.20691 0.85 0.0
-1.20926 0.8 0.0
-1.20221 0.95 0.0
-1.19986 1 0.0
-1.20456 0.9 0.0
-1.13997 0.3 0.0
-1.14731 0.25 0.0
-1.13781 0.4 0.0
-1.13014 0.35 0.0
-1.12548 0.45 0.0
-1.14815 0.5 0.0
-1.15962 0.55 0.0
-1.14849 0.6 0.0
-1.15745 0.65 0.0
-1.16155 0.75 0.0
-1.14917 0.8 0.0
-1.14883 0.7 0.0
-1.09625 0 0.0
-1.09661 0.1 0.0
-1.09393 0.05 0.0
-1.09697 0.2 0.0
-1.08929 0.15 0.0
-1.15687 0.85 0.0
-1.14985 1 0.0
-1.15219 0.95 0.0
-1.14951 0.9 0.0
-1.09733 0.3 0.0
-1.08465 0.25 0.0
-1.09769 0.4 0.0
-1.08 0.35 0.0
-1.08661 0.45 0.0
-1.09804 0.5 0.0
-1.12082 0.55 0.0
-1.10916 0.8 0.0
-1.10629 0.7 0.0
-1.0984 0.6 0.0
-1.11616 0.65 0.0
-1.11149 0.75 0.0
-1.04604 0 0.0
-1.04623 0.05 0.0
-1.04642 0.1 0.0
-1.0468 0.2 0.0
-1.03911 0.15 0.0
-1.09948 0.9 0.0
-1.0993 0.85 0.0
-1.09984 1 0.0
-1.09966 0.95 0.0
-1.04718 0.3 0.0
-1.03449 0.25 0.0
-1.04756 0.4 0.0
-1.02986 0.35 0.0
-1.04775 0.45 0.0
-1.04794 0.5 0.0
-1.04813 0.55 0.0
-1.05911 0.8 0.0
-1.04831 0.6 0.0
-1.06376 0.7 0.0
-1.0485 0.65 0.0
-1.04888 0.75 0.0
-0.995833 0 0.0
-0.991231 0.1 0.0
-0.996033 0.05 0.0
-0.986629 0.2 0.0
-0.98893 0.15 0.0
-1.05447 0.9 0.0
-1.04926 0.85 0.0
-1.04983 1 0.0
-1.04964 0.95 0.0
-0.984328 0.25 0.0
-0.99703 0.3 0.0
-0.997429 0.4 0.0
-0.997628 0.45 0.0
-0.979726 0.35 0.0
-0.997827 0.5 0.0
-0.998027 0.55 0.0
-0.998226 0.6 0.0
-0.961416 0.475 0.0
-1.00907 0.8 0.0
-0.998426 0.65 0.0
-0.998625 0.7 0.0
-1.01138 0.75 0.0
-0.945625 0 0.0
-0.946044 0.1 0.0
-0.943334 0.05 0.0
-0.946463 0.2 0.0
-0.938752 0.15 0.0
-1.00444 0.9 0.0
-1.00675 0.85 0.0
-0.999821 1 0.0
-1.00213 0.95 0.0
-0.93417 0.25 0.0
-0.946881 0.3 0.0
-0.9473 0.4 0.0
-0.929588 0.35 0.0
-0.925005 0.45 0.0
-0.960371 0.525 0.0
-0.959325 0.575 0.0
-0.958279 0.625 0.0
-0.922714 0.5 0.0
-0.959017 0.8 0.0
-0.957233 0.675 0.0
-0.952999 0.7125 0.0
-0.948766 0.75 0.0
-0.895417 0 0.0
-0.895855 0.1 0.0
-0.893136 0.05 0.0
-0.896294 0.2 0.0
-0.888573 0.15 0.0
-0.949184 0.85 0.0
-0.954415 0.9 0.0
-0.949812 1 0.0
-0.949603 0.95 0.0
-0.884011 0.25 0.0
-0.896733 0.3 0.0
-0.874887 0.45 0.0
-0.879449 0.35 0.0
-0.897171 0.4 0.0
-0.920423 0.55 0.0
-0.918132 0.6 0.0
-0.915841 0.65 0.0
-0.872606 0.5 0.0
-0.908968 0.8 0.0
-0.91355 0.7 0.0
-0.898707 0.75 0.0
-0.845208 0 0.0
-0.845438 0.05 0.0
-0.845667 0.1 0.0
-0.845896 0.15 0.0
-0.833853 0.25 0.0
-0.846126 0.2 0.0
-0.899146 0.85 0.0
-0.904386 0.9 0.0
-0.899584 0.95 0.0
-0.899804 1 0.0
-0.838062 0.35 0.0
[...]
POINT_DATA 10839
VECTORS Velocity float
0.21 0 0.0
0.24 0 0.0
0.2275 0 0.0
0.2475 0 0.0
0.25 0 0.0
0.2475 0 0.0
0 0 0.0
0.0475 0 0.0
0.1275 0 0.0
0.09 0 0.0
0.09 0 0.0
0.1275 0 0.0
0.1875 0 0.0
0.16 0 0.0
0.195557 -2.36945e-05 0.0
0.242841 -3.21804e-05 0.0
0.215776 -2.81464e-05 0.0
0.231406 -3.16846e-05 0.0
0.248725 -3.42377e-05 0.0
0.24 0 0.0
0.24284 -3.20887e-05 0.0
0.24852 -3.29684e-05 0.0
0 0 0.0
0.0622239 -4.21531e-06 0.0
0.032227 -2.78707e-06 0.0
0.16 0 0.0
0.1875 0 0.0
0.21 0 0.0
0.2275 0 0.0
0.193592 -2.65653e-05 0.0
0.138887 -1.48572e-05 0.0
0 0 0.0
0.0475 0 0.0
0.0998415 -1.0382e-05 0.0
0.0622206 -4.26515e-06 0.0
0.0998462 -1.08435e-05 0.0
0.138891 -1.49918e-05 0.0
0.17438 -3.73331e-05 0.0
0.201605 -5.09866e-05 0.0
0.235787 -6.20797e-05 0.0
0.244085 -6.49094e-05 0.0
0.223602 -8.31231e-05 0.0
0.249751 -6.77684e-05 0.0
0.249044 -7.54574e-05 0.0
0.231404 -3.21644e-05 0.0
0.244081 -6.41049e-05 0.0
0 0 0.0
0.0361081 -5.34942e-06 0.0
0.0736126 -1.48956e-05 0.0
0.0622489 -1.62777e-05 0.0
0.17437 -3.67583e-05 0.0
0.220162 -5.0867e-05 0.0
0.201594 -5.10016e-05 0.0
0.115549 -2.2193e-05 0.0
0.146676 -3.42214e-05 0.0
0 0 0.0
0.0360874 -3.6266e-06 0.0
0.0693661 -1.16911e-05 0.0
0.0899837 -2.3048e-05 0.0
0.109391 -3.10846e-05 0.0
0.146691 -3.35769e-05 0.0
0.178902 -6.23867e-05 0.0
0.206293 -8.13548e-05 0.0
0.2145 -0.000109348 0.0
0.238527 -9.70431e-05 0.0
0.24735 -0.000100978 0.0
0.229606 -0.000123309 0.0
0.226324 -8.71929e-05 0.0
0.249983 -0.000101436 0.0
0.246426 -9.86859e-05 0.0
0.23668 -9.29575e-05 0.0
0 0 0.0
0.0322504 -6.02355e-06 0.0
0.095696 -3.52083e-05 0.0
0.0694284 -2.65084e-05 0.0
0.178876 -6.13686e-05 0.0
0.206269 -8.18502e-05 0.0
0.127477 -4.74402e-05 0.0
0.165874 -7.74802e-05 0.0
0.152326 -5.56951e-05 0.0
0 0 0.0
0.0360796 -5.18759e-06 0.0
0.062196 -1.61248e-05 0.0
0.0956306 -3.58943e-05 0.0
0.127524 -4.79199e-05 0.0
0.15666 -6.94076e-05 0.0
0.1156 -5.48792e-05 0.0
0.193625 -0.00011391 0.0
0.21814 -0.000143845 0.0
0.240939 -0.000131278 0.0
0.247737 -0.000136061 0.0
0.25 -0.000137489 0.0
0.234397 -0.000166266 0.0
0.229577 -0.000121427 0.0
0.247728 -0.000135681 0.0
0.24092 -0.000130899 0.0
0 0 0.0
0.0344868 -8.30802e-06 0.0
0.10312 -5.38254e-05 0.0
0.0623016 -2.68097e-05 0.0
0.189728 -9.68239e-05 0.0
0.21299 -0.000134749 0.0
0.170535 -0.000104685 0.0
0.144331 -7.78827e-05 0.0
0 0 0.0
0.0398983 -8.88195e-06 0.0
0.0997875 -4.90202e-05 0.0
0.0693221 -2.61128e-05 0.0
0.170623 -0.000104989 0.0
0.14442 -7.96815e-05 0.0
0.124375 -8.06189e-05 0.0
0.183648 -0.000132403 0.0
0.20413 -0.000158295 0.0
0.222037 -0.000186103 0.0
0.249109 -0.000179955 0.0
0.244026 -0.000175347 0.0
0.249119 -0.00018005 0.0
0.23855 -0.00021107 0.0
0.234354 -0.000164992 0.0
0.244883 -0.000189479 0.0
0 0 0.0
0.032291 -8.77962e-06 0.0
0.0940718 -5.6474e-05 0.0
0.0652148 -3.3814e-05 0.0
0.196698 -0.000144323 0.0
0.217873 -0.000176975 0.0
0.17744 -0.000146253 0.0
0.148692 -0.000102469 0.0
0.120331 -7.19804e-05 0.0
0 0 0.0
0.0343912 -8.41935e-06 0.0
0.0716459 -3.40281e-05 0.0
0.152422 -0.000114988 0.0
0.127611 -9.98269e-05 0.0
0.187576 -0.000163746 0.0
0.211948 -0.000203635 0.0
0.248606 -0.000222735 0.0
0.225683 -0.000230457 0.0
0.249782 -0.00022447 0.0
0.246473 -0.000220821 0.0
0.242063 -0.00025791 0.0
0.238491 -0.000210042 0.0
0 0 0.0
0.0338727 -1.09786e-05 0.0
0.0999889 -7.5158e-05 0.0
0.0695408 -4.49238e-05 0.0
0.206263 -0.000190084 0.0
0.222407 -0.000221305 0.0
0.189979 -0.000197091 0.0
0.168258 -0.000159515 0.0
0.143008 -0.000122693 0.0
0.124197 -9.08687e-05 0.0
0.0970868 -6.12505e-05 0.0
0 0 0.0
0.0360217 -1.06897e-05 0.0
0.0673176 -3.63998e-05 0.0
0.13033 -0.000120347 0.0
0.168479 -0.000160841 0.0
0.199469 -0.00020955 0.0
0.218375 -0.000245611 0.0
0.241993 -0.000257922 0.0
0.25 -0.000269477 0.0
0.247989 -0.000266189 0.0
0.229078 -0.0002768 0.0
0.244936 -0.000306351 0.0
0.24874 -0.000282706 0.0
0.234447 -0.000263879 0.0
0 0 0.0
0.03623 -1.41311e-05 0.0
0.122652 -0.000123082 0.0
0.0712231 -5.30527e-05 0.0
0.208353 -0.000231641 0.0
0.225129 -0.000275182 0.0
0.198053 -0.000240003 0.0
0.177731 -0.000199113 0.0
0.146531 -0.00014728 0.0
0.119137 -0.000103297 0.0
0.0970551 -6.9334e-05 0.0
0 0 0.0
0.0349402 -1.19517e-05 0.0
0.0672816 -4.09076e-05 0.0
0.152295 -0.000167796 0.0
0.178012 -0.000204847 0.0
0.210112 -0.000258825 0.0
0.244859 -0.000305454 0.0
0.24942 -0.000314034 0.0
0.232221 -0.000324935 0.0
0.244194 -0.000347993 0.0
0.249988 -0.000370424 0.0
0.249131 -0.000330073 0.0
0.235915 -0.000314946 0.0
0.212957 -0.00031544 0.0
0 0 0.0
0.0371577 -1.66296e-05 0.0
0.141102 -0.000171005 0.0
0.0999482 -0.000103649 0.0
0.066592 -5.16758e-05 0.0
0.213634 -0.000280809 0.0
0.186614 -0.000244437 0.0
0.165092 -0.000199282 0.0
0.122248 -0.000123494 0.0
0.092872 -7.58872e-05 0.0
0 0 0.0
0.0349112 -1.3324e-05 0.0
0.064232 -4.33983e-05 0.0
0.16559 -0.000214139 0.0
0.186961 -0.000251582 0.0
0.158114 -0.000223831 0.0
0.247092 -0.000356117 0.0
0.248691 -0.000408486 0.0
0.231046 -0.000364532 0.0
0.240521 -0.000388569 0.0
0.248755 -0.000409064 0.0
0.240205 -0.000361534 0.0
0.229261 -0.000354512 0.0
0.199174 -0.000308814 0.0
0.218627 -0.000368665 0.0
0 0 0.0
0.0346446 -1.62995e-05 0.0
0.126158 -0.000166012 0.0
0.0681687 -5.82791e-05 0.0
0.0988075 -0.000112678 0.0
0.20809 -0.000319764 0.0
0.189769 -0.000279133 0.0
0.168136 -0.000232124 0.0
0.140629 -0.000168896 0.0
0.0954173 -9.00614e-05 0.0
0 0 0.0
0.0332559 -1.36215e-05 0.0
0.0660635 -5.16187e-05 0.0
0.183214 -0.000291727 0.0
0.159251 -0.000250309 0.0
0.2449 -0.000420203 0.0
0.249659 -0.000461497 0.0
0.235955 -0.000425923 0.0
0.244853 -0.000449376 0.0
0.249375 -0.00046141 0.0
0.238624 -0.000424505 0.0
0.218429 -0.000383121 0.0
0.203094 -0.00036006 0.0
0.223362 -0.000421317 0.0
0 0 0.0
0.047798 -3.23379e-05 0.0
0.127906 -0.000188929 0.0
0.0904096 -0.000105658 0.0
0.202619 -0.000342693 0.0
0.177979 -0.000282465 0.0
0.147901 -0.000212928 0.0
0.118731 -0.000140419 0.0
0.078038 -7.58822e-05 0.0
0 0 0.0
0.0342352 -1.60527e-05 0.0
0.18782 -0.000345348 0.0
0.160387 -0.00027839 0.0
0.246453 -0.000478969 0.0
0.249996 -0.000517077 0.0
0.240131 -0.000491157 0.0
0.24757 -0.000539729 0.0
0.239864 -0.000485337 0.0
0.2273 -0.000448749 0.0
0.209741 -0.000399287 0.0
0.227713 -0.000478166 0.0
0.210278 -0.000422829 0.0
0 0 0.0
0.047859 -3.58288e-05 0.0
0.127997 -0.000210332 0.0
0.0904883 -0.000115613 0.0
0.187186 -0.000338666 0.0
0.159636 -0.000266621 0.0
0.0472052 -3.20234e-05 0.0
0.127102 -0.00018575 0.0
0.089604 -0.000104008 0.0
0 0 0.0
0.187893 -0.000388438 0.0
0.160474 -0.000311535 0.0
0.24742 -0.000542033 0.0
0.249994 -0.000581642 0.0
0.240161 -0.000554038 0.0
0.247584 -0.000606777 0.0
0.227256 -0.000502989 0.0
0.239832 -0.000544432 0.0
0.187115 -0.000379021 0.0
0.209683 -0.000447229 0.0
0.227751 -0.00052551 0.0
0.210341 -0.000476264 0.0
0 0 0.0
0.0479253 -3.86281e-05 0.0
0.1281 -0.000232956 0.0
0.0905946 -0.000128238 0.0
0.127013 -0.000208527 0.0
0.159555 -0.000298633 0.0
0.0471474 -3.58459e-05 0.0
0.0895184 -0.000116207 0.0
0 0 0.0
0.187977 -0.000434843 0.0
0.160573 -0.000347469 0.0
0.247401 -0.000606589 0.0
0.24999 -0.000650777 0.0
0.227793 -0.000577817 0.0
0.240207 -0.000649819 0.0
0.247598 -0.000679773 0.0
0.227213 -0.000548322 0.0
0.239795 -0.000607249 0.0
0.187056 -0.000409758 0.0
0.209616 -0.000497712 0.0
0.210411 -0.00053446 0.0
0 0 0.0
0.0480022 -4.1837e-05 0.0
0.128234 -0.000260477 0.0
0.0907028 -0.000139461 0.0
0.12693 -0.000228448 0.0
0.159465 -0.000332199 0.0
0.0470762 -4.05588e-05 0.0
0.0894233 -0.000129702 0.0
0 0 0.0
0.160685 -0.000386103 0.0
0.188097 -0.000498575 0.0
0.247378 -0.000675482 0.0
0.249985 -0.00072521 0.0
0.240236 -0.00071211 0.0
0.227871 -0.00067292 0.0
0.247613 -0.000758011 0.0
0.239753 -0.000673196 0.0
0.227167 -0.000597189 0.0
0.186972 -0.000453607 0.0
0.209543 -0.000550154 0.0
0.210491 -0.000599519 0.0
0 0 0.0
0.0480778 -4.47692e-05 0.0
0.128347 -0.00028291 0.0
0.090822 -0.000151043 0.0
0.126824 -0.000254402 0.0
0.159365 -0.000368461 0.0
0 0 0.0
0.0893169 -0.000145992 0.0
0.0470031 -4.56887e-05 0.0
0.188208 -0.000559648 0.0
0.160813 -0.00042984 0.0
0.227925 -0.000739121 0.0
0.247352 -0.000749702 0.0
0.249977 -0.000806183 0.0
0.247624 -0.000825004 0.0
0.240267 -0.000778556 0.0
0.239705 -0.000743325 0.0
0.227104 -0.000658983 0.0
0.186854 -0.000510942 0.0
0.209462 -0.000605651 0.0
0.21058 -0.000671609 0.0
0 0 0.0
0.0481609 -4.75135e-05 0.0
0.0909406 -0.000161847 0.0
0.128495 -0.000311516 0.0
0.126689 -0.00028757 0.0
0.159257 -0.000407037 0.0
0 0 0.0
0.0469133 -5.21241e-05 0.0
0.0892124 -0.000161997 0.0
0.188304 -0.000609549 0.0
0.16096 -0.000480133 0.0
0.22798 -0.000812644 0.0
0.240324 -0.00091054 0.0
0.247319 -0.000829443 0.0
0.249965 -0.00089362 0.0
0.247635 -0.000896637 0.0
0.239649 -0.000817228 0.0
0.227033 -0.000723548 0.0
0.186777 -0.000547173 0.0
0.209373 -0.000661672 0.0
0.210681 -0.000755007 0.0
0 0 0.0
0.0482512 -5.04788e-05 0.0
0.128691 -0.000352156 0.0
0.0911018 -0.000178844 0.0
0.126581 -0.000314492 0.0
0.159141 -0.000447238 0.0
0.0468207 -5.8771e-05 0.0
0 0 0.0
0.0890714 -0.00018424 0.0
0.161128 -0.000539824 0.0
0.18848 -0.000706625 0.0
0.228085 -0.000951297 0.0
0.240367 -0.00102212 0.0
0.247644 -0.00100005 0.0
0.247259 -0.000952691 0.0
0.249946 -0.000991321 0.0
0.239583 -0.000896216 0.0
0.226923 -0.000811843 0.0
0.18664 -0.000606374 0.0
0.209274 -0.000718708 0.0
0.210793 -0.000852078 0.0
0 0 0.0
0.0483479 -5.43294e-05 0.0
0.0912677 -0.000197079 0.0
0.16132 -0.000610488 0.0
0.128858 -0.000388798 0.0
0.126446 -0.000347006 0.0
0.159042 -0.00047945 0.0
0.0467098 -6.72728e-05 0.0
0 0 0.0
0.0889422 -0.000204448 0.0
0.210898 -0.000947844 0.0
0.188603 -0.000779374 0.0
0.240399 -0.00112108 0.0
0.228166 -0.00107903 0.0
0.24765 -0.00116791 0.0
0.249919 -0.00109658 0.0
0.247216 -0.0010248 0.0
0.239505 -0.000976356 0.0
0.226844 -0.000866796 0.0
0.18655 -0.000640568 0.0
0.158887 -0.000525502 0.0
0.209165 -0.000772671 0.0
0 0 0.0
0.0914399 -0.000222022 0.0
0.0484641 -6.03044e-05 0.0
0.161495 -0.000683862 0.0
0.129116 -0.000457064 0.0
0.126302 -0.000378403 0.0
0 0 0.0
0.0465855 -7.60002e-05 0.0
0.0887727 -0.00022867 0.0
0.211014 -0.00105761 0.0
0.18883 -0.000927442 0.0
0.24043 -0.00123041 0.0
0.228253 -0.00122675 0.0
0.247641 -0.00127567 0.0
0.249876 -0.00121382 0.0
0.247166 -0.00110278 0.0
0.158777 -0.000549046 0.0
0.209064 -0.000814866 0.0
0.23941 -0.00105782 0.0
0.226756 -0.000921435 0.0
0.186423 -0.000681264 0.0
0 0 0.0
0.0485836 -6.83846e-05 0.0
0.0916572 -0.000260418 0.0
0.161742 -0.00079535 0.0
0.129381 -0.000537705 0.0
0.0886075 -0.000246566 0.0
0.126128 -0.000407774 0.0
0 0 0.0
0.0464424 -8.41543e-05 0.0
0.211158 -0.00121437 0.0
0.18904 -0.0010771 0.0
0.240462 -0.0013888 0.0
0.22834 -0.00140093 0.0
0.247628 -0.00139334 0.0
0.249821 -0.00134362 0.0
0.247043 -0.00125205 0.0
0.158638 -0.000569778 0.0
0.239297 -0.00114173 0.0
0.208952 -0.000850393 0.0
0.226589 -0.00100461 0.0
0.186253 -0.000718644 0.0
0 0 0.0
0.0919489 -0.000321057 0.0
0.0487321 -8.48443e-05 0.0
0.162083 -0.000972782 0.0
0.12969 -0.000646629 0.0
0.0884548 -0.000256173 0.0
0.125972 -0.000423905 0.0
0 0 0.0
0.0462932 -9.23136e-05 0.0
0.189271 -0.00126384 0.0
0.211315 -0.00140542 0.0
0.240485 -0.00157631 0.0
0.247595 -0.00155848 0.0
0.228424 -0.00160618 0.0
0.249739 -0.00148431 0.0
0.246925 -0.0013684 0.0
0.239156 -0.00122471 0.0
0.249225 -0.00165346 0.0
0.158489 -0.000573065 0.0
0.226433 -0.00105935 0.0
0.208753 -0.000891005 0.0
0.186138 -0.000727467 0.0
0 0 0.0
0.0922405 -0.00039119 0.0
0.048928 -0.000105524 0.0
0.162342 -0.00112627 0.0
0.130052 -0.000789452 0.0
0.0882856 -0.000258007 0.0
0.125837 -0.000423517 0.0
0 0 0.0
0.0461482 -9.60211e-05 0.0
0.189525 -0.00149278 0.0
0.211479 -0.00163664 0.0
0.240484 -0.00178707 0.0
0.228502 -0.00185264 0.0
0.247494 -0.00184529 0.0
0.248853 -0.00153594 0.0
0.243534 -0.00137771 0.0
0.233272 -0.00119379 0.0
0.249556 -0.00172885 0.0
0.158336 -0.000551677 0.0
0.218063 -0.000999424 0.0
0.203395 -0.000854572 0.0
0.185932 -0.000715336 0.0
0 0 0.0
0.0926319 -0.000493552 0.0
0.0491613 -0.000132996 0.0
0.162704 -0.00136153 0.0
0.13048 -0.000973618 0.0
0.125664 -0.000396114 0.0
0.0881261 -0.000245822 0.0
0 0 0.0
0.0459923 -9.3756e-05 0.0
0.189801 -0.00177384 0.0
0.211647 -0.00191411 0.0
0.247381 -0.0020708 0.0
0.228564 -0.00213891 0.0
0.24047 -0.00203832 0.0
0.246673 -0.00156141 0.0
0.238855 -0.00135466 0.0
0.226106 -0.00112873 0.0
0.249376 -0.00191302 0.0
0.158172 -0.000502196 0.0
0.208423 -0.00089836 0.0
0.185737 -0.000677027 0.0
0 0 0.0
0.0494477 -0.00016806 0.0
0.0931089 -0.000622499 0.0
0.130909 -0.00116628 0.0
0.190098 -0.00210925 0.0
0.163113 -0.00164937 0.0
0.125521 -0.000342758 0.0
0.0879847 -0.000217423 0.0
0.0458498 -8.83321e-05 0.0
0 0 0.0
0.228603 -0.00241397 0.0
0.211814 -0.00224673 0.0
0.247263 -0.00227089 0.0
0.240414 -0.00232943 0.0
0.22585 -0.00115252 0.0
0.246448 -0.00169322 0.0
0.238603 -0.00143302 0.0
0.249147 -0.00211705 0.0
0.18552 -0.000604331 0.0
0.157972 -0.0003941 0.0
0.208101 -0.000863195 0.0
0 0 0.0
0.0498273 -0.000218324 0.0
0.0937701 -0.000791494 0.0
0.131499 -0.00143803 0.0
0.190332 -0.002409 0.0
0.163675 -0.00207979 0.0
0.125402 -0.000258654 0.0
0.0878724 -0.000161689 0.0
0.0457362 -7.45116e-05 0.0
0 0 0.0
0.125314 -0.000141316 0.0
0.228621 -0.00271318 0.0
0.212024 -0.00277065 0.0
0.240274 -0.00281142 0.0
0.247113 -0.00248693 0.0
0.225414 -0.00116241 0.0
0.238294 -0.00150651 0.0
0.246164 -0.00183662 0.0
0.248845 -0.00234638 0.0
0.185267 -0.000498588 0.0
0.157789 -0.000268751 0.0
0.207787 -0.000809408 0.0
0 0 0.0
0.0503001 -0.000270695 0.0
0.0945126 -0.000979822 0.0
0.132192 -0.00175561 0.0
0.190665 -0.00285289 0.0
0.164213 -0.00250245 0.0
0.0456456 -5.87281e-05 0.0
0.0878132 -9.74501e-05 0.0
0 0 0.0
0.125262 -1.77621e-05 0.0
0.228613 -0.00314192 0.0
0.21217 -0.00324295 0.0
0.240104 -0.00320846 0.0
0.246856 -0.00280649 0.0
0.225074 -0.00116308 0.0
0.237913 -0.00158005 0.0
0.24847 -0.00260042 0.0
0.245628 -0.0020652 0.0
0.185046 -0.00039706 0.0
0.157604 -0.000109397 0.0
0.20742 -0.000728075 0.0
0 0 0.0
0.0508884 -0.00033787 0.0
0.0954115 -0.00119393 0.0
0.133144 -0.00217676 0.0
0.191106 -0.0035039 0.0
0.212302 -0.00378281 0.0
0.164823 -0.00298625 0.0
0.0456081 -3.44663e-05 0.0
0.087818 -1.64009e-05 0.0
0 0 0.0
0.125246 0.000145193 0.0
0.228539 -0.00380123 0.0
0.239928 -0.00356862 0.0
0.24653 -0.00316346 0.0
0.248125 -0.00281548 0.0
0.224689 -0.00114712 0.0
0.237437 -0.00166367 0.0
0.24514 -0.00223983 0.0
0.157421 8.15042e-05 0.0
0.184717 -0.000239865 0.0
0.206974 -0.000628773 0.0
0 0 0.0
0.0516384 -0.000416904 0.0
0.0964895 -0.00143847 0.0
0.134131 -0.00259308 0.0
0.191386 -0.00394821 0.0
0.212409 -0.00437713 0.0
0.165518 -0.00352581 0.0
0.0456155 -9.86715e-06 0.0
0.0878999 7.99146e-05 0.0
0 0 0.0
0.157269 0.000251807 0.0
0.0880685 0.000189518 0.0
0.125289 0.000350022 0.0
0.228418 -0.0043844 0.0
0.239699 -0.00395057 0.0
0.245903 -0.00375643 0.0
0.247731 -0.00304164 0.0
0.244702 -0.00239556 0.0
0.224134 -0.00112471 0.0
0.236624 -0.0017823 0.0
0.184238 -8.14674e-06 0.0
0.206532 -0.000537086 0.0
0.228289 -0.00489257 0.0
0 0 0.0
0.0524974 -0.000497127 0.0
0.135292 -0.00304938 0.0
0.0977521 -0.00170689 0.0
0.212502 -0.00505088 0.0
0.191897 -0.00476221 0.0
0.166303 -0.00411701 0.0
0.0456945 2.81814e-05 0.0
0 0 0.0
0.183898 0.000134806 0.0
0.157086 0.000471661 0.0
0.125401 0.000527553 0.0
0.0457924 5.64118e-05 0.0
0.0883187 0.000295122 0.0
0.239354 -0.00448684 0.0
0.245475 -0.00411908 0.0
0.247103 -0.00338072 0.0
0.24656 -0.00366729 0.0
0.244186 -0.00255661 0.0
0.223465 -0.00111018 0.0
0.235881 -0.00188509 0.0
0.206024 -0.000428631 0.0
0.228101 -0.00544688 0.0
0.0534515 -0.000581653 0.0
0 0 0.0
0.136403 -0.00346122 0.0
0.0992147 -0.00198651 0.0
0.212571 -0.00578309 0.0
0.192221 -0.00529874 0.0
0.167204 -0.00476169 0.0
0 0 0.0
0.183426 0.000339293 0.0
0.156875 0.000729378 0.0
0.12554 0.000684932 0.0
0.0459734 8.21549e-05 0.0
0.0886407 0.000392959 0.0
0.238716 -0.00534439 0.0
0.244997 -0.00450237 0.0
0.245938 -0.00396707 0.0
0.243046 -0.00289986 0.0
0.222694 -0.00109206 0.0
0.235041 -0.00200072 0.0
0.205128 -0.00027478 0.0
0.22784 -0.00618708 0.0
0 0 0.0
0.0546305 -0.000673205 0.0
0.13789 -0.00397616 0.0
0.100734 -0.00225782 0.0
0.168217 -0.00544451 0.0
0.212623 -0.00658925 0.0
0.192836 -0.00625704 0.0
0 0 0.0
0 0 0.0
0.182881 0.000522388 0.0
0.156721 0.000925456 0.0
0.125772 0.000843361 0.0
0.0890501 0.000475053 0.0
0.0462072 0.000104566 0.0
0.238146 -0.00602879 0.0
0.244261 -0.00505809 0.0
0.234256 -0.00211541 0.0
0.245006 -0.00441485 0.0
0.242069 -0.00319094 0.0
0.221788 -0.00109532 0.0
0.204309 -0.000168149 0.0
0.237618 -0.00663465 0.0
0.227496 -0.0069966 0.0
0.0559971 -0.000775898 0.0
0.102634 -0.00257249 0.0
0.13958 -0.00452883 0.0
0.169142 -0.00603927 0.0
0.21267 -0.00745493 0.0
0.193233 -0.00689464 0.0
0 0 0.0
0 0 0.0
0.156599 0.001064 0.0
0.182159 0.00072818 0.0
0.0894708 0.000536069 0.0
0.126097 0.000987108 0.0
0.0464573 0.000121729 0.0
0.242998 -0.00593995 0.0
0.243913 -0.00491996 0.0
0.203409 -8.40479e-05 0.0
0.233387 -0.00223927 0.0
0.241232 -0.0034452 0.0
0.220377 -0.00113077 0.0
0.237028 -0.00725784 0.0
0.22696 -0.00820242 0.0
0.212698 -0.00839894 0.0
0.0576059 -0.000900025 0.0
0.104774 -0.0029182 0.0
0.141791 -0.00520198 0.0
0.170416 -0.00680842 0.0
0.193993 -0.00801787 0.0
0 0 0.0
0 0 0.0
0.156455 0.00121695 0.0
0.181525 0.00083671 0.0
0.0900552 0.000576053 0.0
0.126449 0.00106343 0.0
0.0467799 0.000135122 0.0
0.240292 -0.00372569 0.0
0.242682 -0.00546776 0.0
0.241938 -0.00665355 0.0
0.20241 -3.17874e-05 0.0
0.232167 -0.00243674 0.0
0.219157 -0.00120992 0.0
0.180875 0.000893983 0.0
0.235821 -0.00848682 0.0
0 0 0.0
0.22645 -0.00920823 0.0
0.194683 -0.00900813 0.0
0.212718 -0.0094128 0.0
0.0592702 -0.00101236 0.0
0.143664 -0.00574838 0.0
0.10743 -0.00334014 0.0
0.172156 -0.00783241 0.0
0 0 0.0
0 0 0.0
0 0 0.0
0 0 0.0
0 0 0.0
0.0470818 0.000135252 0.0
0.12686 0.00108269 0.0
0.156367 0.00127023 0.0
0.0905335 0.000576378 0.0
0.23894 -0.00411387 0.0
0.241281 -0.00608594 0.0
0.24076 -0.0074286 0.0
0.218057 -0.00128635 0.0
0.201311 -3.00896e-05 0.0
0.230192 -0.00277803 0.0
0.200321 -6.92846e-05 0.0
0.180359 0.000896338 0.0
0.234798 -0.00947878 0.0
0.225885 -0.0102788 0.0
0 0 0.0
8.12159e-05 -2.38057e-05 0.0
0 0 0.0
-0.000494727 0.0035115 0.0
0.212748 -0.0105253 0.0
0.195267 -0.00979174 0.0
0.0613382 -0.00116198 0.0
0.146048 -0.00643268 0.0
0.110138 -0.00376935 0.0
0.173822 -0.00877023 0.0
0 0 0.0
0 0 0.0
0 0 0.0
-0.00039512 0.00213329 0.0
-9.21079e-05 3.29936e-05 0.0
-0.000117384 9.63309e-05 0.0
0 0 0.0
0.0473571 0.000118776 0.0
0.127206 0.00105453 0.0
0.156295 0.00124778 0.0
0.0911149 0.000535118 0.0
0.237426 -0.00456848 0.0
0.239713 -0.00676534 0.0
0.23942 -0.008272 0.0
0.216874 -0.00140871 0.0
0.228919 -0.00303194 0.0
0.199277 -0.000147814 0.0
0.179505 0.0007931 0.0
0.233669 -0.0105433 0.0
0.227804 -0.0111892 0.0
0.219562 -0.0114984 0.0
0 0 0.0
-1.15162e-05 7.05291e-05 0.0
0 0 0.0
0 0 0.0
-0.0016959 0.0073751 0.0
-0.00175987 0.00518977 0.0
0.208978 -0.0114661 0.0
0.196108 -0.0109306 0.0
0.112843 -0.00420976 0.0
0.063463 -0.00133548 0.0
0.148692 -0.00720913 0.0
0.175643 -0.00980105 0.0
0 0 0.0
-0.000776542 0.00133489 0.0
-0.00129672 0.00299179 0.0
-0.000616697 0.000682317 0.0
-0.000718191 0.000558056 0.0
0 0 0.0
0.0476098 9.44233e-05 0.0
0.127631 0.00094975 0.0
0.156247 0.00114902 0.0
0.0916107 0.00045205 0.0
0.235731 -0.0050741 0.0
0.23797 -0.00750638 0.0
0.237918 -0.00919003 0.0
0.214741 -0.00169113 0.0
0.227545 -0.00330337 0.0
0.197992 -0.000331122 0.0
0.156254 0.000934462 0.0
0.178833 0.000596413 0.0
0.232663 -0.011451 0.0
0.224783 -0.0122796 0.0
0.212773 -0.012671 0.0
0 0 0.0
-0.000609362 0.000265037 0.0
0 0 0.0
0 0 0.0
0 0 0.0
0 0 0.0
-0.00331874 0.00546669 0.0
-0.000425457 0.00602962 0.0
-0.00164717 0.00917866 0.0
-0.00393258 0.0118528 0.0
-0.00352043 0.00852177 0.0
0 0 0.0
5.31371e-06 0.00783023 0.0
0.197257 -0.0125471 0.0
0.177251 -0.0107426 0.0
0 0 0.0
0.0661535 -0.00158363 0.0
0.116175 -0.00479121 0.0
0.152093 -0.00831281 0.0
0 0 0.0
0 0 0.0
-0.00221377 0.0029341 0.0
-0.0019174 0.0017532 0.0
-0.00200252 0.00113423 0.0
0 0 0.0
0.0477965 5.35763e-05 0.0