# vtk DataFile Version 3.0
Mesh NS-CD Problem
ASCII
DATASET UNSTRUCTURED_GRID
POINTS 10839 float
-2 0.3 0.0
-2 0.4 0.0
-2 0.35 0.0
-2 0.45 0.0
-2 0.5 0.0
-2 0.55 0.0
-2 0 0.0
-2 0.05 0.0
-2 0.85 0.0
-2 0.9 0.0
-2 0.1 0.0
-2 0.15 0.0
-2 0.25 0.0
-2 0.2 0.0
-1.96653 0.266667 0.0
-1.96524 0.415385 0.0
-1.96485 0.315 0.0
-1.96348 0.363636 0.0
-1.96414 0.464286 0.0
-2 0.6 0.0
-1.96538 0.584615 0.0
-1.96538 0.538462 0.0
-1.94979 0 0.0
-1.96653 0.0666666 0.0
-1.93306 0.0333333 0.0
-2 0.8 0.0
-2 0.75 0.0
-2 0.7 0.0
-2 0.65 0.0
-1.96249 0.7375 0.0
-1.96666 0.833333 0.0
-2 1 0.0
-2 0.95 0.0
-1.96249 0.8875 0.0
-1.96666 0.933333 0.0
-1.96234 0.1125 0.0
-1.96653 0.166667 0.0
-1.93724 0.225 0.0
-1.92971 0.28 0.0
-1.93048 0.380769 0.0
-1.93048 0.423077 0.0
-1.89958 0.3375 0.0
-1.9292 0.484203 0.0
-1.92117 0.530907 0.0
-1.96363 0.636364 0.0
-1.93076 0.576923 0.0
-1.89958 0 0.0
-1.88703 0.0375 0.0
-1.90963 0.08 0.0
-1.86611 0.0666666 0.0
-1.93749 0.775 0.0
-1.93635 0.672727 0.0
-1.92999 0.72 0.0
-1.93332 0.866667 0.0
-1.92856 0.821429 0.0
-1.94999 1 0.0
-1.92499 0.9625 0.0
-1.92499 0.925 0.0
-1.89998 0.9 0.0
-1.89958 0.125 0.0
-1.92827 0.178571 0.0
-1.89958 0.233333 0.0
-1.89045 0.290909 0.0
-1.86096 0.311538 0.0
-1.89241 0.392857 0.0
-1.89334 0.448489 0.0
-1.85655 0.357143 0.0
-1.89614 0.653846 0.0
-1.89427 0.504121 0.0
-1.8952 0.559753 0.0
-1.89614 0.615385 0.0
-1.84937 0 0.0
-1.83264 0.0333333 0.0
-1.85655 0.107143 0.0
-1.81172 0.075 0.0
-1.89998 0.766667 0.0
-1.89089 0.709091 0.0
-1.87498 0.85 0.0
-1.85998 0.79 0.0
-1.88748 0.8125 0.0
-1.89998 1 0.0
-1.88748 0.9625 0.0
-1.86664 0.933333 0.0
-1.85712 0.892857 0.0
-1.87448 0.15 0.0
-1.86611 0.194444 0.0
-1.83264 0.133333 0.0
-1.83264 0.2625 0.0
-1.82068 0.321429 0.0
-1.85664 0.404762 0.0
-1.85674 0.452381 0.0
-1.85683 0.5 0.0
-1.81184 0.375 0.0
-1.85712 0.642857 0.0
-1.85693 0.547619 0.0
-1.85702 0.595238 0.0
-1.79917 0 0.0
-1.78482 0.0357143 0.0
-1.79917 0.116667 0.0
-1.76569 0.0666666 0.0
-1.85452 0.745455 0.0
-1.82689 0.692308 0.0
-1.81815 0.781818 0.0
-1.82497 0.825 0.0
-1.84997 1 0.0
-1.8333 0.958333 0.0
-1.81247 0.8875 0.0
-1.81247 0.925 0.0
-1.81742 0.218182 0.0
-1.82427 0.175 0.0
-1.77634 0.145455 0.0
-1.79144 0.242308 0.0
-1.78482 0.285714 0.0
-1.77469 0.332653 0.0
-1.81215 0.529762 0.0
-1.81194 0.422619 0.0
-1.81203 0.470238 0.0
-1.76714 0.392857 0.0
-1.81234 0.625 0.0
-1.79732 0.571429 0.0
-1.74896 0 0.0
-1.73222 0.0333333 0.0
-1.75398 0.105 0.0
-1.71883 0.07 0.0
-1.79227 0.730769 0.0
-1.78007 0.679121 0.0
-1.75765 0.769231 0.0
-1.78178 0.818182 0.0
-1.78996 0.86 0.0
-1.79996 1 0.0
-1.78568 0.964286 0.0
-1.76663 0.922222 0.0
-1.76569 0.1875 0.0
-1.73222 0.15 0.0
-1.74896 0.25 0.0
-1.73714 0.304762 0.0
-1.76743 0.537202 0.0
-1.72869 0.343878 0.0
-1.76732 0.485119 0.0
-1.76723 0.440476 0.0
-1.72243 0.410714 0.0
-1.76757 0.607143 0.0
-1.69875 0 0.0
-1.68369 0.035 0.0
-1.69875 0.1125 0.0
-1.66528 0.075 0.0
-1.74341 0.708974 0.0
-1.73324 0.665934 0.0
-1.70441 0.74478 0.0
-1.71423 0.785714 0.0
-1.72303 0.826923 0.0
-1.74541 0.854545 0.0
-1.74541 0.890909 0.0
-1.74996 1 0.0
-1.73745 0.9625 0.0
-1.71359 0.927273 0.0
-1.68716 0.153846 0.0
-1.7131 0.214286 0.0
-1.70725 0.275 0.0
-1.69712 0.321939 0.0
-1.72279 0.589286 0.0
-1.72261 0.5 0.0
-1.7227 0.544643 0.0
-1.6827 0.355102 0.0
-1.67773 0.428571 0.0
-1.70763 0.464286 0.0
-1.70369 0.62449 0.0
-1.64854 0 0.0
-1.63181 0.0375 0.0
-1.64137 0.142857 0.0
-1.61764 0.0769231 0.0
-1.69458 0.703846 0.0
-1.67471 0.657437 0.0
-1.66143 0.727637 0.0
-1.67125 0.768571 0.0
-1.67851 0.821429 0.0
-1.68841 0.861538 0.0
-1.70904 0.890909 0.0
-1.69995 1 0.0
-1.68176 0.963636 0.0
-1.67267 0.927273 0.0
-1.65427 0.187143 0.0
-1.66718 0.231429 0.0
-1.66554 0.3 0.0
-1.67802 0.571429 0.0
-1.67792 0.523809 0.0
-1.6367 0.366327 0.0
-1.63682 0.423469 0.0
-1.62568 0.502976 0.0
-1.6629 0.470238 0.0
-1.65254 0.618367 0.0
-1.6059 0.307143 0.0
-1.59833 0 0.0
-1.58288 0.0384615 0.0
-1.60563 0.169643 0.0
-1.58179 0.112271 0.0
-1.56964 0.0714286 0.0
-1.64574 0.690385 0.0
-1.62827 0.751429 0.0
-1.63371 0.791071 0.0
-1.64279 0.857143 0.0
-1.65378 0.896154 0.0
-1.64994 1 0.0
-1.6363 0.963636 0.0
-1.61916 0.930769 0.0
-1.61345 0.209107 0.0
-1.62126 0.248571 0.0
-1.56989 0.196429 0.0
-1.63324 0.553571 0.0
-1.58846 0.535714 0.0
-1.59408 0.361905 0.0
-1.59161 0.402211 0.0
-1.58832 0.464286 0.0
-1.61504 0.598581 0.0
-1.59683 0.64359 0.0
-1.57899 0.274107 0.0
-1.56176 0.322381 0.0
-1.54812 0 0.0
-1.53378 0.0357143 0.0
-1.54593 0.147619 0.0
-1.53385 0.0732143 0.0
-1.53393 0.110714 0.0
-1.58522 0.704286 0.0
-1.58709 0.745 0.0
-1.58896 0.785714 0.0
-1.60695 0.830357 0.0
-1.60707 0.892857 0.0
-1.59993 1 0.0
-1.58454 0.965385 0.0
-1.57135 0.928571 0.0
-1.55209 0.241071 0.0
-1.5291 0.198214 0.0
-1.56936 0.570918 0.0
-1.54369 0.517857 0.0
-1.5464 0.380952 0.0
-1.54564 0.427721 0.0
-1.54488 0.47449 0.0
-1.55026 0.606122 0.0
-1.54222 0.677143 0.0
-1.52943 0.282857 0.0
-1.52143 0.33619 0.0
-1.49792 0 0.0
-1.49802 0.05 0.0
-1.49822 0.15 0.0
-1.49312 0.1 0.0
-1.5423 0.717143 0.0
-1.54419 0.767857 0.0
-1.54727 0.819048 0.0
-1.57122 0.861905 0.0
-1.53553 0.914286 0.0
-1.54992 1 0.0
-1.53563 0.964286 0.0
-1.49842 0.25 0.0
-1.48831 0.2 0.0
-1.5214 0.558929 0.0
-1.49891 0.5 0.0
-1.49871 0.4 0.0
-1.47631 0.45 0.0
-1.49911 0.6 0.0
-1.49921 0.65 0.0
-1.49931 0.7 0.0
-1.48111 0.35 0.0
-1.48351 0.3 0.0
-1.44771 0 0.0
-1.44782 0.05 0.0
-1.44804 0.15 0.0
-1.44793 0.1 0.0
-1.49941 0.75 0.0
-1.49951 0.8 0.0
-1.49981 0.95 0.0
-1.49961 0.85 0.0
-1.49971 0.9 0.0
-1.49991 1 0.0
-1.44826 0.25 0.0
-1.43815 0.2 0.0
-1.47151 0.55 0.0
-1.44881 0.5 0.0
-1.44859 0.4 0.0
-1.42619 0.45 0.0
-1.44913 0.65 0.0
-1.44902 0.6 0.0
-1.44935 0.75 0.0
-1.44924 0.7 0.0
-1.43972 0.35 0.0
-1.43336 0.3 0.0
-1.3975 0 0.0
-1.39762 0.05 0.0
-1.39786 0.15 0.0
-1.39274 0.1 0.0
-1.44957 0.85 0.0
-1.44946 0.8 0.0
-1.4523 0.95 0.0
-1.44968 0.9 0.0
-1.4499 1 0.0
-1.3981 0.25 0.0
-1.38798 0.2 0.0
-1.42141 0.55 0.0
-1.3987 0.5 0.0
-1.39834 0.35 0.0
-1.37845 0.4 0.0
-1.37607 0.45 0.0
-1.40784 0.65 0.0
-1.39894 0.6 0.0
-1.41185 0.75 0.0
-1.39918 0.7 0.0
-1.38322 0.3 0.0
-1.34729 0 0.0
-1.34492 0.05 0.0
-1.34018 0.15 0.0
-1.34255 0.1 0.0
-1.40707 0.85 0.0
-1.39941 0.8 0.0
-1.39977 0.95 0.0
-1.39965 0.9 0.0
-1.39989 1 0.0
-1.33781 0.2 0.0
-1.33544 0.25 0.0
-1.37131 0.55 0.0
-1.34859 0.5 0.0
-1.33833 0.4 0.0
-1.3307 0.35 0.0
-1.32595 0.45 0.0
-1.34885 0.6 0.0
-1.36655 0.65 0.0
-1.36179 0.75 0.0
-1.34911 0.7 0.0
-1.33307 0.3 0.0
-1.29708 0 0.0
-1.29722 0.05 0.0
-1.2975 0.15 0.0
-1.29236 0.1 0.0
-1.35703 0.85 0.0
-1.34937 0.8 0.0
-1.34988 1 0.0
-1.34962 0.9 0.0
-1.35226 0.95 0.0
-1.28528 0.25 0.0
-1.28764 0.2 0.0
-1.28931 0.35 0.0
-1.32121 0.55 0.0
-1.29848 0.5 0.0
-1.28709 0.45 0.0
-1.2982 0.4 0.0
-1.29876 0.6 0.0
-1.31647 0.65 0.0
-1.29918 0.75 0.0
-1.29904 0.7 0.0
-1.28292 0.3 0.0
-1.24687 0 0.0
-1.24702 0.05 0.0
-1.24717 0.1 0.0
-1.24732 0.15 0.0
-1.29946 0.85 0.0
-1.29932 0.8 0.0
-1.29987 1 0.0
-1.29974 0.95 0.0
-1.30462 0.9 0.0
-1.24762 0.25 0.0
-1.23747 0.2 0.0
-1.24792 0.35 0.0
-1.22807 0.4 0.0
-1.27111 0.55 0.0
-1.24837 0.5 0.0
-1.24822 0.45 0.0
-1.24867 0.6 0.0
-1.26639 0.65 0.0
-1.26167 0.75 0.0
-1.24897 0.7 0.0
-1.23277 0.3 0.0
-1.19667 0 0.0
-1.19683 0.05 0.0
-1.18964 0.15 0.0
-1.19198 0.1 0.0
-1.25695 0.85 0.0
-1.24927 0.8 0.0
-1.25223 0.95 0.0
-1.24987 1 0.0
-1.24957 0.9 0.0
-1.1873 0.2 0.0
-1.18496 0.25 0.0
-1.18028 0.35 0.0
-1.17794 0.4 0.0
-1.1981 0.45 0.0
-1.19842 0.55 0.0
-1.19826 0.5 0.0
-1.19858 0.6 0.0
-1.19874 0.65 0.0
-1.19906 0.75 0.0
-1.1989 0.7 0.0
-1.18262 0.3 0.0
-1.14646 0 0.0
-1.14663 0.05 0.0
-1.1418 0.1 0.0
-1.13713 0.2 0.0
-1.14697 0.15 0.0
-1.20691 0.85 0.0
-1.20926 0.8 0.0
-1.20221 0.95 0.0
-1.19986 1 0.0
-1.20456 0.9 0.0
-1.13997 0.3 0.0
-1.14731 0.25 0.0
-1.13781 0.4 0.0
-1.13014 0.35 0.0
-1.12548 0.45 0.0
-1.14815 0.5 0.0
-1.15962 0.55 0.0
-1.14849 0.6 0.0
-1.15745 0.65 0.0
-1.16155 0.75 0.0
-1.14917 0.8 0.0
-1.14883 0.7 0.0
-1.09625 0 0.0
-1.09661 0.1 0.0
-1.09393 0.05 0.0
-1.09697 0.2 0.0
-1.08929 0.15 0.0
-1.15687 0.85 0.0
-1.14985 1 0.0
-1.15219 0.95 0.0
-1.14951 0.9 0.0
-1.09733 0.3 0.0
-1.08465 0.25 0.0
-1.09769 0.4 0.0
-1.08 0.35 0.0
-1.08661 0.45 0.0
-1.09804 0.5 0.0
-1.12082 0.55 0.0
-1.10916 0.8 0.0
-1.10629 0.7 0.0
-1.0984 0.6 0.0
-1.11616 0.65 0.0
-1.11149 0.75 0.0
-1.04604 0 0.0
-1.04623 0.05 0.0
-1.04642 0.1 0.0
-1.0468 0.2 0.0
-1.03911 0.15 0.0
-1.09948 0.9 0.0
-1.0993 0.85 0.0
-1.09984 1 0.0
-1.09966 0.95 0.0
-1.04718 0.3 0.0
-1.03449 0.25 0.0
-1.04756 0.4 0.0
-1.02986 0.35 0.0
-1.04775 0.45 0.0
-1.04794 0.5 0.0
-1.04813 0.55 0.0
-1.05911 0.8 0.0
-1.04831 0.6 0.0
-1.06376 0.7 0.0
-1.0485 0.65 0.0
-1.04888 0.75 0.0
-0.995833 0 0.0
-0.991231 0.1 0.0
-0.996033 0.05 0.0
-0.986629 0.2 0.0
-0.98893 0.15 0.0
-1.05447 0.9 0.0
-1.04926 0.85 0.0
-1.04983 1 0.0
-1.04964 0.95 0.0
-0.984328 0.25 0.0
-0.99703 0.3 0.0
-0.997429 0.4 0.0
-0.997628 0.45 0.0
-0.979726 0.35 0.0
-0.997827 0.5 0.0
-0.998027 0.55 0.0
-0.998226 0.6 0.0
-0.961416 0.475 0.0
-1.00907 0.8 0.0
-0.998426 0.65 0.0
-0.998625 0.7 0.0
-1.01138 0.75 0.0
-0.945625 0 0.0
-0.946044 0.1 0.0
-0.943334 0.05 0.0
-0.946463 0.2 0.0
-0.938752 0.15 0.0
-1.00444 0.9 0.0
-1.00675 0.85 0.0
-0.999821 1 0.0
-1.00213 0.95 0.0
-0.93417 0.25 0.0
-0.946881 0.3 0.0
-0.9473 0.4 0.0
-0.929588 0.35 0.0
-0.925005 0.45 0.0
-0.960371 0.525 0.0
-0.959325 0.575 0.0
-0.958279 0.625 0.0
-0.922714 0.5 0.0
-0.959017 0.8 0.0
-0.957233 0.675 0.0
-0.952999 0.7125 0.0
-0.948766 0.75 0.0
-0.895417 0 0.0
-0.895855 0.1 0.0
-0.893136 0.05 0.0
-0.896294 0.2 0.0
-0.888573 0.15 0.0
-0.949184 0.85 0.0
-0.954415 0.9 0.0
-0.949812 1 0.0
-0.949603 0.95 0.0
-0.884011 0.25 0.0
-0.896733 0.3 0.0
-0.874887 0.45 0.0
-0.879449 0.35 0.0
-0.897171 0.4 0.0
-0.920423 0.55 0.0
-0.918132 0.6 0.0
-0.915841 0.65 0.0
-0.872606 0.5 0.0
-0.908968 0.8 0.0
-0.91355 0.7 0.0
-0.898707 0.75 0.0
-0.845208 0 0.0
-0.845438 0.05 0.0
-0.845667 0.1 0.0
-0.845896 0.15 0.0
-0.833853 0.25 0.0
-0.846126 0.2 0.0
-0.899146 0.85 0.0
-0.904386 0.9 0.0
-0.899584 0.95 0.0
-0.899804 1 0.0
-0.838062 0.35 0.0
[...]
POINT_DATA 10839
VECTORS Velocity float
0.21 0 0.0
0.24 0 0.0
0.2275 0 0.0
0.2475 0 0.0
0.25 0 0.0
0.2475 0 0.0
0 0 0.0
0.0475 0 0.0
0.1275 0 0.0
0.09 0 0.0
0.09 0 0.0
0.1275 0 0.0
0.1875 0 0.0
0.16 0 0.0
0.195557 -2.44822e-05 0.0
0.24284 -2.85992e-05 0.0
0.215776 -2.88754e-05 0.0
0.231405 -3.10375e-05 0.0
0.248723 -2.63455e-05 0.0
0.24 0 0.0
0.242839 -1.63956e-05 0.0
0.248519 -2.07722e-05 0.0
0 0 0.0
0.0622237 -4.1794e-06 0.0
0.0322272 -3.15032e-06 0.0
0.16 0 0.0
0.1875 0 0.0
0.21 0 0.0
0.2275 0 0.0
0.193593 -1.00598e-05 0.0
0.138888 -6.93898e-06 0.0
0 0 0.0
0.0475 0 0.0
0.0998426 -5.24985e-06 0.0
0.0622213 -2.098e-06 0.0
0.099846 -1.02479e-05 0.0
0.138891 -1.45466e-05 0.0
0.174381 -3.88678e-05 0.0
0.201605 -5.47384e-05 0.0
0.235783 -6.06028e-05 0.0
0.24408 -5.77334e-05 0.0
0.223598 -8.94921e-05 0.0
0.249744 -4.95452e-05 0.0
0.249037 -4.61865e-05 0.0
0.231404 -1.38614e-05 0.0
0.244077 -3.17243e-05 0.0
0 0 0.0
0.0361086 -5.65341e-06 0.0
0.0736114 -1.46372e-05 0.0
0.0622457 -1.32988e-05 0.0
0.174374 -1.37058e-05 0.0
0.220163 -1.80424e-05 0.0
0.201598 -1.66306e-05 0.0
0.115553 -1.06148e-05 0.0
0.146682 -1.43103e-05 0.0
0 0 0.0
0.0360909 -1.31349e-06 0.0
0.0693704 -5.14998e-06 0.0
0.0899917 -1.13317e-05 0.0
0.10939 -2.9297e-05 0.0
0.146692 -3.37958e-05 0.0
0.178905 -6.85263e-05 0.0
0.206293 -9.23705e-05 0.0
0.214497 -0.00012934 0.0
0.238516 -9.6505e-05 0.0
0.247335 -8.558e-05 0.0
0.229593 -0.000139083 0.0
0.226324 -2.65731e-05 0.0
0.249968 -6.80171e-05 0.0
0.246415 -5.04291e-05 0.0
0.236676 -3.57609e-05 0.0
0 0 0.0
0.0322468 -2.6433e-06 0.0
0.095694 -2.77296e-05 0.0
0.0694155 -3.37011e-06 0.0
0.178887 -1.87988e-05 0.0
0.206276 -2.09991e-05 0.0
0.127494 -2.15685e-05 0.0
0.1659 -2.2008e-05 0.0
0.152341 -2.06886e-05 0.0
0 0 0.0
0.0360877 -2.04002e-06 0.0
0.0622079 -9.95805e-06 0.0
0.0956481 -2.23829e-05 0.0
0.127527 -4.53968e-05 0.0
0.156668 -7.42424e-05 0.0
0.115606 -4.23834e-05 0.0
0.193635 -0.000142048 0.0
0.218131 -0.000183788 0.0
0.240916 -0.000132464 0.0
0.247708 -0.000116861 0.0
0.24997 -9.44342e-05 0.0
0.234364 -0.000196928 0.0
0.229573 -3.05465e-05 0.0
0.247702 -7.00689e-05 0.0
0.240903 -4.73923e-05 0.0
0 0 0.0
0.0344617 6.20328e-06 0.0
0.103126 -2.17182e-05 0.0
0.0622605 2.49124e-05 0.0
0.18975 -1.78591e-05 0.0
0.213005 -1.36236e-05 0.0
0.170585 -1.86612e-05 0.0
0.144377 -2.96369e-05 0.0
0 0 0.0
0.039911 -9.05776e-06 0.0
0.0998236 -4.48884e-05 0.0
0.0693404 -3.35538e-05 0.0
0.170647 -0.000125951 0.0
0.144439 -8.00041e-05 0.0
0.124413 -5.00999e-05 0.0
0.183679 -0.000177975 0.0
0.204141 -0.000226232 0.0
0.222013 -0.000263286 0.0
0.249054 -9.95105e-05 0.0
0.243976 -0.000178278 0.0
0.249061 -0.000146363 0.0
0.238478 -0.000262193 0.0
0.234334 -2.95295e-05 0.0
0.244832 -6.52709e-05 0.0
0 0 0.0
0.0322093 2.15396e-05 0.0
0.094079 1.80313e-05 0.0
0.0651299 6.38326e-05 0.0
0.196747 3.69209e-06 0.0
0.217886 1.04946e-05 0.0
0.177549 1.15834e-05 0.0
0.148783 -3.42076e-05 0.0
0.1204 -5.42218e-05 0.0
0 0 0.0
0.0343933 -1.80206e-05 0.0
0.0716648 -7.26764e-05 0.0
0.152485 -0.000128501 0.0
0.127708 -5.62704e-05 0.0
0.18763 -0.000253138 0.0
0.211949 -0.000336427 0.0
0.248509 -0.000101538 0.0
0.225629 -0.000366169 0.0
0.249677 -0.000170449 0.0
0.246376 -0.00022215 0.0
0.241924 -0.000332208 0.0
0.238438 -2.46774e-05 0.0
0 0 0.0
0.0336921 4.05372e-05 0.0
0.100049 4.42497e-05 0.0
0.0694083 9.04307e-05 0.0
0.206323 5.38252e-05 0.0
0.222407 5.78778e-05 0.0
0.190141 0.000101054 0.0
0.168463 3.3385e-05 0.0
0.143211 -4.47407e-05 0.0
0.124333 -8.01253e-05 0.0
0.0971683 -0.000105677 0.0
0 0 0.0
0.0359837 -3.95443e-05 0.0
0.0673065 -0.000119679 0.0
0.130533 -8.72409e-05 0.0
0.168613 -0.000251449 0.0
0.199525 -0.000390624 0.0
0.218342 -0.000459568 0.0
0.241877 -1.84545e-05 0.0
0.249825 -0.00017922 0.0
0.247831 -9.28573e-05 0.0
0.228964 -0.000496718 0.0
0.244688 -0.000399185 0.0
0.248539 -0.000266343 0.0
0.234361 6.33285e-05 0.0
0 0 0.0
0.035917 4.97692e-05 0.0
0.122973 -0.000107744 0.0
0.0710831 5.00502e-05 0.0
0.208434 0.000144288 0.0
0.225091 0.000165348 0.0
0.198238 0.000230031 0.0
0.178018 0.000143939 0.0
0.146877 -1.83065e-06 0.0
0.119402 -0.0001132 0.0
0.0971796 -0.000142659 0.0
0 0 0.0
0.0348112 -5.98369e-05 0.0
0.0672414 -0.000148806 0.0
0.152617 -0.000292289 0.0
0.178213 -0.000431454 0.0
0.210125 -0.000566925 0.0
0.24464 -1.10466e-05 0.0
0.249146 -0.000144784 0.0
0.232 -0.000655129 0.0
0.243831 -0.000521163 0.0
0.24952 -0.000232508 0.0
0.248806 -0.000312632 0.0
0.235737 0.000153912 0.0
0.21293 -0.000883557 0.0
0 0 0.0
0.0367551 2.37667e-05 0.0
0.141635 -0.000396848 0.0
0.100281 -0.000204181 0.0
0.0664484 -5.59616e-05 0.0
0.213693 0.000288201 0.0
0.186962 0.000332587 0.0
0.165577 0.000203722 0.0
0.122697 -5.8438e-05 0.0
0.0930589 -0.000159544 0.0
0 0 0.0
0.0346844 -6.70501e-05 0.0
0.0641485 -0.000125566 0.0
0.166023 -0.000581131 0.0
0.187209 -0.000699323 0.0
0.158778 -0.000824803 0.0
0.24671 -1.93921e-05 0.0
0.248072 -7.42827e-05 0.0
0.230728 -0.000889389 0.0
0.240034 -0.000762516 0.0
0.248122 -0.000467794 0.0
0.239866 0.000187787 0.0
0.229056 0.000411941 0.0
0.19934 -0.00105108 0.0
0.218436 -0.00119193 0.0
0 0 0.0
0.0342572 -3.42502e-05 0.0
0.126966 -0.000732847 0.0
0.0682038 -0.00023018 0.0
0.0993816 -0.00055086 0.0
0.208237 0.000598278 0.0
0.190191 0.000579892 0.0
0.168798 0.000457942 0.0
0.141315 0.000168155 0.0
0.0957611 -6.54841e-05 0.0
0 0 0.0
0.0329508 -4.54316e-05 0.0
0.0660798 -1.44165e-05 0.0
0.183675 -0.00120596 0.0
0.160092 -0.00126681 0.0
0.244264 0.000173728 0.0
0.248711 -0.00016925 0.0
0.235336 -0.00111262 0.0
0.244015 -0.000833974 0.0
0.248425 -0.000505186 0.0
0.238037 0.000463753 0.0
0.218308 0.00085484 0.0
0.203184 -0.00153379 0.0
0.222921 -0.00151262 0.0
0 0 0.0
0.0477201 -0.000209546 0.0
0.129035 -0.00137382 0.0
0.0912284 -0.000866886 0.0
0.202872 0.000942595 0.0
0.178711 0.000886237 0.0
0.148936 0.000672905 0.0
0.119527 0.000234824 0.0
0.0784737 0.000231758 0.0
0 0 0.0
0.0339608 3.74241e-06 0.0
0.188259 -0.00188818 0.0
0.161371 -0.00187915 0.0
0.24543 0.000217181 0.0
0.248627 -0.000333177 0.0
0.239054 -0.00132449 0.0
0.246027 -0.000953027 0.0
0.238874 0.000682519 0.0
0.226745 0.00107368 0.0
0.209757 0.00134819 0.0
0.2269 -0.00185491 0.0
0.210059 -0.00207108 0.0
0 0 0.0
0.0483953 -0.00042526 0.0
0.129561 -0.0022931 0.0
0.0919954 -0.00143476 0.0
0.187838 0.0014328 0.0
0.160839 0.00135065 0.0
0.047295 0.000162269 0.0
0.128499 0.00109862 0.0
0.090608 0.000659511 0.0
0 0 0.0
0.188295 -0.00271955 0.0
0.161593 -0.00285723 0.0
0.245855 0.000259364 0.0
0.247996 -0.000383601 0.0
0.238552 -0.00171954 0.0
0.245326 -0.00120602 0.0
0.226336 0.00156815 0.0
0.238337 0.00100524 0.0
0.187784 0.00221543 0.0
0.209502 0.00198491 0.0
0.226579 -0.00235047 0.0
0.209841 -0.00283208 0.0
0 0 0.0
0.0495044 -0.000687767 0.0
0.130245 -0.00342342 0.0
0.0934698 -0.0022836 0.0
0.128903 0.002001 0.0
0.160964 0.00223542 0.0
0.0478393 0.000369028 0.0
0.0913474 0.00127868 0.0
0 0 0.0
0.18818 -0.00378302 0.0
0.161749 -0.00408678 0.0
0.245141 0.000429906 0.0
0.247171 -0.000424247 0.0
0.226115 -0.00293302 0.0
0.237541 -0.0024354 0.0
0.244448 -0.00149294 0.0
0.225852 0.00206428 0.0
0.237601 0.00140644 0.0
0.187626 0.00294555 0.0
0.209083 0.00279916 0.0
0.209453 -0.003763 0.0
0 0 0.0
0.0511165 -0.000972538 0.0
0.131374 -0.00490658 0.0
0.0953511 -0.00311024 0.0
0.129348 0.00292491 0.0
0.161003 0.00336943 0.0
0.0488541 0.000619423 0.0
0.0924879 0.00200795 0.0
0 0 0.0
0.161869 -0.00552017 0.0
0.187804 -0.0054161 0.0
0.244193 0.000629116 0.0
0.246082 -0.000477784 0.0
0.236717 -0.00291923 0.0
0.225055 -0.00407022 0.0
0.243284 -0.00183018 0.0
0.236626 0.00188879 0.0
0.225219 0.0026499 0.0
0.187274 0.00411446 0.0
0.20844 0.00378337 0.0
0.208839 -0.00488485 0.0
0 0 0.0
0.0530002 -0.00120206 0.0
0.132477 -0.00601831 0.0
0.0978207 -0.00390601 0.0
0.130118 0.00414259 0.0
0.160996 0.00471713 0.0
0 0 0.0
0.0942032 0.00280011 0.0
0.050177 0.000859013 0.0
0.187261 -0.00695049 0.0
0.162035 -0.00710241 0.0
0.224133 -0.0048954 0.0
0.242981 0.00086929 0.0
0.244716 -0.000533903 0.0
0.242175 -0.00212341 0.0
0.235738 -0.0034577 0.0
0.235364 0.00244686 0.0
0.224218 0.00347101 0.0
0.186546 0.00586006 0.0
0.207532 0.00492854 0.0
0.20797 -0.00616716 0.0
0 0 0.0
0.0554924 -0.00140409 0.0
0.100506 -0.00452969 0.0
0.134178 -0.00726244 0.0
0.131409 0.00561224 0.0
0.160989 0.00619939 0.0
0 0 0.0
0.0521204 0.00110806 0.0
0.0961813 0.00350552 0.0
0.186761 -0.00815698 0.0
0.162332 -0.00867489 0.0
0.223021 -0.00580929 0.0
0.233529 -0.0045345 0.0
0.24145 0.00113983 0.0
0.24301 -0.000591227 0.0
0.240873 -0.00245277 0.0
0.233779 0.00308077 0.0
0.222905 0.00441238 0.0
0.185946 0.00698869 0.0
0.20634 0.00622191 0.0
0.206818 -0.00758998 0.0
0 0 0.0
0.0582826 -0.00152957 0.0
0.136905 -0.00846723 0.0
0.10446 -0.00511672 0.0
0.132685 0.00663168 0.0
0.161093 0.0077293 0.0
0.0543123 0.00130315 0.0
0 0 0.0
0.0992147 0.00425265 0.0
0.162889 -0.0101524 0.0
0.185903 -0.0102306 0.0
0.220702 -0.00744817 0.0
0.231484 -0.00540246 0.0
0.238855 -0.00291658 0.0
0.238608 0.00159778 0.0
0.240937 -0.000671236 0.0
0.231827 0.0037779 0.0
0.2206 0.00586092 0.0
0.184889 0.00895389 0.0
0.204859 0.0076083 0.0
0.205413 -0.00911023 0.0
0 0 0.0
0.0613383 -0.00161944 0.0
0.10837 -0.00544135 0.0
0.163839 -0.0114085 0.0
0.139234 -0.00914531 0.0
0.134678 0.00767231 0.0
0.161318 0.00887269 0.0
0.0568832 0.00143218 0.0
0 0 0.0
0.102139 0.00470507 0.0
0.204056 -0.0104311 0.0
0.185405 -0.0113765 0.0
0.229584 -0.00614742 0.0
0.218586 -0.00872006 0.0
0.235229 -0.00364761 0.0
0.238457 -0.000755282 0.0
0.236719 0.00186135 0.0
0.229487 0.00452922 0.0
0.218855 0.00679191 0.0
0.18422 0.0100508 0.0
0.16212 0.0103755 0.0
0.203164 0.00901114 0.0
0 0 0.0
0.112235 -0.00550317 0.0
0.064477 -0.00167553 0.0
0.164977 -0.0121707 0.0
0.143106 -0.00962165 0.0
0.137192 0.00844074 0.0
0 0 0.0
0.0596516 0.00148613 0.0
0.106209 0.00503218 0.0
0.202642 -0.0116441 0.0
0.184828 -0.0129969 0.0
0.22743 -0.0068918 0.0
0.216193 -0.00995725 0.0
0.232906 -0.00405748 0.0
0.235538 -0.000847432 0.0
0.234608 0.00212536 0.0
0.162938 0.0110813 0.0
0.201583 0.0101392 0.0
0.226736 0.00528794 0.0
0.216924 0.00769612 0.0
0.183511 0.0113231 0.0
0 0 0.0
0.0672796 -0.00160843 0.0
0.116542 -0.00537797 0.0
0.166781 -0.0126739 0.0
0.146881 -0.00961131 0.0
0.110123 0.0050754 0.0
0.140612 0.00887006 0.0
0 0 0.0
0.0626737 0.00146819 0.0
0.201 -0.0128392 0.0
0.184733 -0.0138453 0.0
0.224431 -0.00778599 0.0
0.213615 -0.0110269 0.0
0.230345 -0.00446205 0.0
0.232187 -0.000956595 0.0
0.229933 0.00259795 0.0
0.164463 0.011557 0.0
0.223623 0.00597856 0.0
0.200034 0.0110832 0.0
0.213357 0.00902325 0.0
0.182951 0.0123764 0.0
0 0 0.0
0.121177 -0.00496889 0.0
0.0702773 -0.00142634 0.0
0.169595 -0.0125925 0.0
0.15091 -0.00920356 0.0
0.113741 0.0048809 0.0
0.144095 0.00879441 0.0
0 0 0.0
0.0652505 0.00145434 0.0
0.185058 -0.0141673 0.0
0.199496 -0.013625 0.0
0.221134 -0.00853148 0.0
0.226716 -0.00492879 0.0
0.210988 -0.0117848 0.0
0.228425 -0.0010727 0.0
0.226249 0.00281823 0.0
0.220213 0.00650813 0.0
0.225195 -0.00320844 0.0
0.16644 0.0114703 0.0
0.21055 0.00968505 0.0
0.197795 0.0119146 0.0
0.18293 0.0126105 0.0
0 0 0.0
0.124797 -0.00448781 0.0
0.072902 -0.00130753 0.0
0.171805 -0.0121275 0.0
0.154998 -0.00846491 0.0
0.117609 0.00444508 0.0
0.147233 0.00840672 0.0
0 0 0.0
0.067722 0.00127347 0.0
0.185811 -0.0138939 0.0
0.198271 -0.0138798 0.0
0.217703 -0.00903846 0.0
0.208453 -0.0121053 0.0
0.221034 -0.00541203 0.0
0.224824 0.000875848 0.0
0.22078 0.00485299 0.0
0.213256 0.00840234 0.0
0.222296 -0.00129792 0.0
0.168792 0.0108174 0.0
0.20273 0.0110828 0.0
0.193299 0.0121939 0.0
0.183372 0.0122407 0.0
0 0 0.0
0.128402 -0.00388042 0.0
0.0751274 -0.00111634 0.0
0.174723 -0.0111516 0.0
0.158953 -0.00748911 0.0
0.15151 0.00743645 0.0
0.121204 0.00382769 0.0
0 0 0.0
0.0701303 0.0010368 0.0
0.18695 -0.0130696 0.0
0.197394 -0.0135589 0.0
0.217042 -0.00554208 0.0
0.206148 -0.0119339 0.0
0.214288 -0.00920648 0.0
0.220076 0.00285426 0.0
0.214548 0.00667547 0.0
0.20613 0.00973368 0.0
0.21808 -0.00148809 0.0
0.171397 0.00967414 0.0
0.195615 0.0115011 0.0
0.184194 0.0112524 0.0
0 0 0.0
0.0768349 -0.000947611 0.0
0.13158 -0.00324808 0.0
0.162091 -0.00655526 0.0
0.188343 -0.0118126 0.0
0.177705 -0.00988513 0.0
0.15507 0.00628298 0.0
0.124343 0.00313263 0.0
0.0718226 0.000860554 0.0
0 0 0.0
0.204479 -0.0114376 0.0
0.196901 -0.012725 0.0
0.214071 -0.00553797 0.0
0.211071 -0.0090364 0.0
0.203738 0.00903257 0.0
0.216029 0.0025911 0.0
0.211083 0.00625282 0.0
0.214038 -0.0017172 0.0
0.185256 0.00972678 0.0
0.174497 0.00781273 0.0
0.194565 0.0100258 0.0
0 0 0.0
0.0784379 -0.000751798 0.0
0.134445 -0.00262601 0.0
0.16536 -0.00545004 0.0
0.189532 -0.0107039 0.0
0.181155 -0.00820275 0.0
0.158215 0.00498308 0.0
0.127161 0.00229984 0.0
0.0732033 0.00062851 0.0
0 0 0.0
0.160948 0.0036294 0.0
0.203075 -0.0106929 0.0
0.196705 -0.0110916 0.0
0.207079 -0.00830739 0.0
0.211283 -0.00545027 0.0
0.20106 0.00730968 0.0
0.207906 0.00542454 0.0
0.212206 0.00208721 0.0
0.210336 -0.00198165 0.0
0.186499 0.00786287 0.0
0.176999 0.00605544 0.0
0.194183 0.00834206 0.0
0 0 0.0
0.0797139 -0.000603843 0.0
0.136602 -0.00214795 0.0
0.168189 -0.00450098 0.0
0.191101 -0.00917988 0.0
0.183756 -0.00687394 0.0
0.0740673 0.000408412 0.0
0.129103 0.00156787 0.0
0 0 0.0
0.162735 0.00255985 0.0
0.201753 -0.00960934 0.0
0.196897 -0.00967979 0.0
0.204814 -0.00760909 0.0
0.208084 -0.00525912 0.0
0.199781 0.00597033 0.0
0.205118 0.00427853 0.0
0.207123 -0.00231388 0.0
0.207276 0.00101376 0.0
0.187389 0.00637282 0.0
0.179087 0.00430622 0.0
0.193988 0.00640833 0.0
0 0 0.0
0.0808019 -0.000514542 0.0
0.138324 -0.00181156 0.0
0.170831 -0.00362111 0.0
0.192943 -0.00743981 0.0
0.197212 -0.00834225 0.0
0.185989 -0.00575476 0.0
0.0747073 0.00020713 0.0
0.130423 0.000921358 0.0
0 0 0.0
0.164339 0.00143414 0.0
0.200488 -0.00810004 0.0
0.203302 -0.00705171 0.0
0.205396 -0.00506392 0.0
0.205064 -0.00259052 0.0
0.198717 0.00450537 0.0
0.20278 0.00294005 0.0
0.204543 0.000115657 0.0
0.180815 0.0026701 0.0
0.188491 0.00440002 0.0
0.193958 0.00442504 0.0
0 0 0.0
0.081711 -0.000498879 0.0
0.139817 -0.00160319 0.0
0.172755 -0.00313238 0.0
0.194003 -0.00661308 0.0
0.197634 -0.00723599 0.0
0.187906 -0.00491284 0.0
0.0749939 3.79158e-05 0.0
0.131252 0.000368422 0.0
0 0 0.0
0.181774 0.00152691 0.0
0.131594 -6.71979e-05 0.0
0.165468 0.000370376 0.0
0.199965 -0.00719563 0.0
0.2021 -0.00654472 0.0
0.202439 -0.00489994 0.0
0.203335 -0.00289669 0.0
0.202753 -0.000613936 0.0
0.1977 0.0027377 0.0
0.200239 0.000950274 0.0
0.189567 0.00215811 0.0
0.19399 0.0028081 0.0
0.199685 -0.00662586 0.0
0 0 0.0
0.0825579 -0.000485494 0.0
0.174361 -0.00288189 0.0
0.141111 -0.0015419 0.0
0.198113 -0.00646493 0.0
0.195481 -0.00563797 0.0
0.1895 -0.00439953 0.0
0.075055 -8.86261e-05 0.0
0 0 0.0
0.190077 0.000987333 0.0
0.182669 0.000301874 0.0
0.165995 -0.000369534 0.0
0.0747588 -0.000155959 0.0
0.131634 -0.00042648 0.0
0.200974 -0.00611448 0.0
0.201293 -0.00492699 0.0
0.201476 -0.003365 0.0
0.200386 -0.00376963 0.0
0.201285 -0.0013544 0.0
0.196928 0.0010741 0.0
0.19891 -0.000398867 0.0
0.193984 0.00134084 0.0
0.199519 -0.00628049 0.0
0.0833414 -0.000521927 0.0
0 0 0.0
0.175535 -0.00283781 0.0
0.142311 -0.00159764 0.0
0.198581 -0.0060536 0.0
0.19629 -0.00534577 0.0
0.190872 -0.00420219 0.0
0 0 0.0
0.190451 -0.000337223 0.0
0.18315 -0.000853969 0.0
0.166045 -0.000862461 0.0
0.0744719 -0.000238913 0.0
0.131339 -0.000698058 0.0
0.199927 -0.00590366 0.0
0.200383 -0.0050412 0.0
0.199509 -0.0042064 0.0
0.19921 -0.00268827 0.0
0.196306 -0.000415042 0.0
0.19786 -0.00164142 0.0
0.19392 -0.00057561 0.0
0.199483 -0.00617946 0.0
0 0 0.0
0.0843121 -0.000578576 0.0
0.176822 -0.00299476 0.0
0.143423 -0.00175384 0.0
0.19204 -0.0043018 0.0
0.199062 -0.00601177 0.0
0.197434 -0.00526895 0.0
0 0 0.0
0 0 0.0
0.190595 -0.00142277 0.0
0.183265 -0.00161971 0.0
0.165912 -0.00133864 0.0
0.130834 -0.000913811 0.0
0.0740068 -0.000314186 0.0
0.199477 -0.00607304 0.0
0.199494 -0.00536209 0.0
0.197191 -0.00254005 0.0
0.198598 -0.00485317 0.0
0.19819 -0.00359321 0.0
0.195789 -0.00171576 0.0
0.193762 -0.00177819 0.0
0.199219 -0.00640053 0.0
0.199495 -0.00640068 0.0
0.0854332 -0.000677658 0.0
0.144726 -0.0020044 0.0
0.178127 -0.00335321 0.0
0.192975 -0.00458784 0.0
0.199519 -0.00630108 0.0
0.19807 -0.00551852 0.0
0 0 0.0
0 0 0.0
0.183053 -0.00211187 0.0
0.190427 -0.00250231 0.0
0.130191 -0.00107077 0.0
0.165378 -0.00176827 0.0
0.0734106 -0.000365443 0.0
0.198624 -0.00611312 0.0
0.197885 -0.00559844 0.0
0.193501 -0.00279401 0.0
0.196607 -0.00337279 0.0
0.197546 -0.00428348 0.0
0.195125 -0.00319442 0.0
0.199036 -0.00686102 0.0
0.199631 -0.0071783 0.0
0.199947 -0.00692787 0.0
0.0867339 -0.000845718 0.0
0.146266 -0.00238653 0.0
0.179634 -0.00403528 0.0
0.194042 -0.0051496 0.0
0.199043 -0.006275 0.0
0 0 0.0
0 0 0.0
0.182552 -0.00273717 0.0
0.190109 -0.00322273 0.0
0.129322 -0.00124297 0.0
0.164686 -0.00208254 0.0
0.0727318 -0.000405348 0.0
0.196993 -0.00497266 0.0
0.197292 -0.00642245 0.0
0.198156 -0.00687771 0.0
0.193125 -0.00366209 0.0
0.195974 -0.00435023 0.0
0.194629 -0.00415781 0.0
0.189612 -0.00385591 0.0
0.198755 -0.00805394 0.0
0 0 0.0
0.199683 -0.00812369 0.0
0.199807 -0.00721867 0.0
0.200338 -0.00783258 0.0
0.0882316 -0.00103266 0.0
0.180964 -0.00471021 0.0
0.14826 -0.00300298 0.0
0.195367 -0.00625051 0.0
0 0 0.0
0 0 0.0
0 0 0.0
0 0 0.0
0 0 0.0
0.0720371 -0.000440171 0.0
0.163876 -0.00237249 0.0
0.181935 -0.00319394 0.0
0.128492 -0.00136937 0.0
0.196346 -0.00586392 0.0
0.196737 -0.0073581 0.0
0.197753 -0.00780652 0.0
0.194163 -0.0048736 0.0
0.192609 -0.00444036 0.0
0.195104 -0.00563799 0.0
0.192091 -0.00505683 0.0
0.189093 -0.00428894 0.0
0.198511 -0.00920479 0.0
0.199722 -0.00928212 0.0
0 0 0.0
-0.000338768 0.000210843 0.0
0 0 0.0
-0.000829623 0.00907346 0.0
0.200699 -0.00906767 0.0
0.200362 -0.00812592 0.0
0.090257 -0.00130773 0.0
0.182633 -0.00569491 0.0
0.150453 -0.00375228 0.0
0.196582 -0.00751374 0.0
0 0 0.0
0 0 0.0
0 0 0.0
-0.000725623 0.00658218 0.0
-0.000508594 0.00142627 0.0
-0.00130014 0.00133099 0.0
0 0 0.0
0.0712035 -0.000480877 0.0
0.163025 -0.00259381 0.0
0.181117 -0.00361536 0.0
0.127293 -0.00151429 0.0
0.195728 -0.00680606 0.0
0.196157 -0.00840339 0.0
0.197317 -0.00889442 0.0
0.193646 -0.00556882 0.0
0.194587 -0.00637871 0.0
0.191458 -0.00564336 0.0
0.188065 -0.00498367 0.0
0.198211 -0.0105496 0.0
0.199324 -0.0106071 0.0
0.200375 -0.0104802 0.0
0 0 0.0
-0.00144803 0.000534515 0.0
0 0 0.0
0 0 0.0
-0.00273852 0.0161669 0.0
-0.00303142 0.0127172 0.0
0.201121 -0.0102408 0.0
0.201056 -0.00965768 0.0
0.152797 -0.00461918 0.0
0.0925832 -0.00168257 0.0
0.184564 -0.0070027 0.0
0.197794 -0.0091165 0.0
0 0 0.0
-0.00201942 0.00544538 0.0
-0.00259766 0.00888498 0.0
-0.00233128 0.00354348 0.0
-0.00357581 0.00235866 0.0
0 0 0.0
0.0703207 -0.000519583 0.0
0.161912 -0.0028479 0.0
0.180124 -0.00400946 0.0
0.126102 -0.00164388 0.0
0.195064 -0.00779571 0.0
0.195508 -0.00955031 0.0
0.1968 -0.0101512 0.0
0.192672 -0.00668593 0.0
0.194015 -0.00711305 0.0
0.190589 -0.00633621 0.0
0.179068 -0.00441514 0.0
0.187113 -0.00553275 0.0
0.197865 -0.0117802 0.0
0.199551 -0.0118702 0.0
0.201097 -0.0119301 0.0
0 0 0.0
-0.00372272 0.000862709 0.0
0 0 0.0
0 0 0.0
0 0 0.0
0 0 0.0
-0.00603174 0.0125403 0.0
-0.000753333 0.0132301 0.0
-0.00267724 0.0189951 0.0
-0.00610036 0.0220898 0.0
-0.00562898 0.0174135 0.0
0 0 0.0
-0.000136857 0.0175596 0.0
0.201832 -0.0121249 0.0
0.198864 -0.010713 0.0
0 0 0.0
0.0958896 -0.00226314 0.0
0.156004 -0.00582729 0.0
0.187195 -0.00915347 0.0
0 0 0.0
0 0 0.0
-0.00502169 0.00827742 0.0
-0.00552599 0.00534244 0.0
-0.00683811 0.00306677 0.0
0 0 0.0
0.0693078 -0.000558747 0.0
0.160474 -0.00313761 0.0
0.124771 -0.00176843 0.0
0.178016 -0.00471277 0.0
0.194318 -0.00884939 0.0
0.194938 -0.0104844 0.0
0.196164 -0.0115844 0.0
0.191945 -0.00736553 0.0
0.19321 -0.00805851 0.0
0.189586 -0.00702078 0.0
0.186237 -0.00592703 0.0
0.200268 -0.0131989 0.0
0.1974 -0.0131528 0.0
0.199104 -0.0144929 0.0
0.201101 -0.0147543 0.0
0.202334 -0.0147077 0.0
0 0 0.0
-0.00569173 0.000923616 0.0
-0.000343088 0.01791 0.0
-0.00189628 0.0282364 0.0