# vtk DataFile Version 3.0
Mesh NS-CD Problem
ASCII
DATASET UNSTRUCTURED_GRID
POINTS 10839 float
-2 0.3 0.0
-2 0.4 0.0
-2 0.35 0.0
-2 0.45 0.0
-2 0.5 0.0
-2 0.55 0.0
-2 0 0.0
-2 0.05 0.0
-2 0.85 0.0
-2 0.9 0.0
-2 0.1 0.0
-2 0.15 0.0
-2 0.25 0.0
-2 0.2 0.0
-1.96653 0.266667 0.0
-1.96524 0.415385 0.0
-1.96485 0.315 0.0
-1.96348 0.363636 0.0
-1.96414 0.464286 0.0
-2 0.6 0.0
-1.96538 0.584615 0.0
-1.96538 0.538462 0.0
-1.94979 0 0.0
-1.96653 0.0666666 0.0
-1.93306 0.0333333 0.0
-2 0.8 0.0
-2 0.75 0.0
-2 0.7 0.0
-2 0.65 0.0
-1.96249 0.7375 0.0
-1.96666 0.833333 0.0
-2 1 0.0
-2 0.95 0.0
-1.96249 0.8875 0.0
-1.96666 0.933333 0.0
-1.96234 0.1125 0.0
-1.96653 0.166667 0.0
-1.93724 0.225 0.0
-1.92971 0.28 0.0
-1.93048 0.380769 0.0
-1.93048 0.423077 0.0
-1.89958 0.3375 0.0
-1.9292 0.484203 0.0
-1.92117 0.530907 0.0
-1.96363 0.636364 0.0
-1.93076 0.576923 0.0
-1.89958 0 0.0
-1.88703 0.0375 0.0
-1.90963 0.08 0.0
-1.86611 0.0666666 0.0
-1.93749 0.775 0.0
-1.93635 0.672727 0.0
-1.92999 0.72 0.0
-1.93332 0.866667 0.0
-1.92856 0.821429 0.0
-1.94999 1 0.0
-1.92499 0.9625 0.0
-1.92499 0.925 0.0
-1.89998 0.9 0.0
-1.89958 0.125 0.0
-1.92827 0.178571 0.0
-1.89958 0.233333 0.0
-1.89045 0.290909 0.0
-1.86096 0.311538 0.0
-1.89241 0.392857 0.0
-1.89334 0.448489 0.0
-1.85655 0.357143 0.0
-1.89614 0.653846 0.0
-1.89427 0.504121 0.0
-1.8952 0.559753 0.0
-1.89614 0.615385 0.0
-1.84937 0 0.0
-1.83264 0.0333333 0.0
-1.85655 0.107143 0.0
-1.81172 0.075 0.0
-1.89998 0.766667 0.0
-1.89089 0.709091 0.0
-1.87498 0.85 0.0
-1.85998 0.79 0.0
-1.88748 0.8125 0.0
-1.89998 1 0.0
-1.88748 0.9625 0.0
-1.86664 0.933333 0.0
-1.85712 0.892857 0.0
-1.87448 0.15 0.0
-1.86611 0.194444 0.0
-1.83264 0.133333 0.0
-1.83264 0.2625 0.0
-1.82068 0.321429 0.0
-1.85664 0.404762 0.0
-1.85674 0.452381 0.0
-1.85683 0.5 0.0
-1.81184 0.375 0.0
-1.85712 0.642857 0.0
-1.85693 0.547619 0.0
-1.85702 0.595238 0.0
-1.79917 0 0.0
-1.78482 0.0357143 0.0
-1.79917 0.116667 0.0
-1.76569 0.0666666 0.0
-1.85452 0.745455 0.0
-1.82689 0.692308 0.0
-1.81815 0.781818 0.0
-1.82497 0.825 0.0
-1.84997 1 0.0
-1.8333 0.958333 0.0
-1.81247 0.8875 0.0
-1.81247 0.925 0.0
-1.81742 0.218182 0.0
-1.82427 0.175 0.0
-1.77634 0.145455 0.0
-1.79144 0.242308 0.0
-1.78482 0.285714 0.0
-1.77469 0.332653 0.0
-1.81215 0.529762 0.0
-1.81194 0.422619 0.0
-1.81203 0.470238 0.0
-1.76714 0.392857 0.0
-1.81234 0.625 0.0
-1.79732 0.571429 0.0
-1.74896 0 0.0
-1.73222 0.0333333 0.0
-1.75398 0.105 0.0
-1.71883 0.07 0.0
-1.79227 0.730769 0.0
-1.78007 0.679121 0.0
-1.75765 0.769231 0.0
-1.78178 0.818182 0.0
-1.78996 0.86 0.0
-1.79996 1 0.0
-1.78568 0.964286 0.0
-1.76663 0.922222 0.0
-1.76569 0.1875 0.0
-1.73222 0.15 0.0
-1.74896 0.25 0.0
-1.73714 0.304762 0.0
-1.76743 0.537202 0.0
-1.72869 0.343878 0.0
-1.76732 0.485119 0.0
-1.76723 0.440476 0.0
-1.72243 0.410714 0.0
-1.76757 0.607143 0.0
-1.69875 0 0.0
-1.68369 0.035 0.0
-1.69875 0.1125 0.0
-1.66528 0.075 0.0
-1.74341 0.708974 0.0
-1.73324 0.665934 0.0
-1.70441 0.74478 0.0
-1.71423 0.785714 0.0
-1.72303 0.826923 0.0
-1.74541 0.854545 0.0
-1.74541 0.890909 0.0
-1.74996 1 0.0
-1.73745 0.9625 0.0
-1.71359 0.927273 0.0
-1.68716 0.153846 0.0
-1.7131 0.214286 0.0
-1.70725 0.275 0.0
-1.69712 0.321939 0.0
-1.72279 0.589286 0.0
-1.72261 0.5 0.0
-1.7227 0.544643 0.0
-1.6827 0.355102 0.0
-1.67773 0.428571 0.0
-1.70763 0.464286 0.0
-1.70369 0.62449 0.0
-1.64854 0 0.0
-1.63181 0.0375 0.0
-1.64137 0.142857 0.0
-1.61764 0.0769231 0.0
-1.69458 0.703846 0.0
-1.67471 0.657437 0.0
-1.66143 0.727637 0.0
-1.67125 0.768571 0.0
-1.67851 0.821429 0.0
-1.68841 0.861538 0.0
-1.70904 0.890909 0.0
-1.69995 1 0.0
-1.68176 0.963636 0.0
-1.67267 0.927273 0.0
-1.65427 0.187143 0.0
-1.66718 0.231429 0.0
-1.66554 0.3 0.0
-1.67802 0.571429 0.0
-1.67792 0.523809 0.0
-1.6367 0.366327 0.0
-1.63682 0.423469 0.0
-1.62568 0.502976 0.0
-1.6629 0.470238 0.0
-1.65254 0.618367 0.0
-1.6059 0.307143 0.0
-1.59833 0 0.0
-1.58288 0.0384615 0.0
-1.60563 0.169643 0.0
-1.58179 0.112271 0.0
-1.56964 0.0714286 0.0
-1.64574 0.690385 0.0
-1.62827 0.751429 0.0
-1.63371 0.791071 0.0
-1.64279 0.857143 0.0
-1.65378 0.896154 0.0
-1.64994 1 0.0
-1.6363 0.963636 0.0
-1.61916 0.930769 0.0
-1.61345 0.209107 0.0
-1.62126 0.248571 0.0
-1.56989 0.196429 0.0
-1.63324 0.553571 0.0
-1.58846 0.535714 0.0
-1.59408 0.361905 0.0
-1.59161 0.402211 0.0
-1.58832 0.464286 0.0
-1.61504 0.598581 0.0
-1.59683 0.64359 0.0
-1.57899 0.274107 0.0
-1.56176 0.322381 0.0
-1.54812 0 0.0
-1.53378 0.0357143 0.0
-1.54593 0.147619 0.0
-1.53385 0.0732143 0.0
-1.53393 0.110714 0.0
-1.58522 0.704286 0.0
-1.58709 0.745 0.0
-1.58896 0.785714 0.0
-1.60695 0.830357 0.0
-1.60707 0.892857 0.0
-1.59993 1 0.0
-1.58454 0.965385 0.0
-1.57135 0.928571 0.0
-1.55209 0.241071 0.0
-1.5291 0.198214 0.0
-1.56936 0.570918 0.0
-1.54369 0.517857 0.0
-1.5464 0.380952 0.0
-1.54564 0.427721 0.0
-1.54488 0.47449 0.0
-1.55026 0.606122 0.0
-1.54222 0.677143 0.0
-1.52943 0.282857 0.0
-1.52143 0.33619 0.0
-1.49792 0 0.0
-1.49802 0.05 0.0
-1.49822 0.15 0.0
-1.49312 0.1 0.0
-1.5423 0.717143 0.0
-1.54419 0.767857 0.0
-1.54727 0.819048 0.0
-1.57122 0.861905 0.0
-1.53553 0.914286 0.0
-1.54992 1 0.0
-1.53563 0.964286 0.0
-1.49842 0.25 0.0
-1.48831 0.2 0.0
-1.5214 0.558929 0.0
-1.49891 0.5 0.0
-1.49871 0.4 0.0
-1.47631 0.45 0.0
-1.49911 0.6 0.0
-1.49921 0.65 0.0
-1.49931 0.7 0.0
-1.48111 0.35 0.0
-1.48351 0.3 0.0
-1.44771 0 0.0
-1.44782 0.05 0.0
-1.44804 0.15 0.0
-1.44793 0.1 0.0
-1.49941 0.75 0.0
-1.49951 0.8 0.0
-1.49981 0.95 0.0
-1.49961 0.85 0.0
-1.49971 0.9 0.0
-1.49991 1 0.0
-1.44826 0.25 0.0
-1.43815 0.2 0.0
-1.47151 0.55 0.0
-1.44881 0.5 0.0
-1.44859 0.4 0.0
-1.42619 0.45 0.0
-1.44913 0.65 0.0
-1.44902 0.6 0.0
-1.44935 0.75 0.0
-1.44924 0.7 0.0
-1.43972 0.35 0.0
-1.43336 0.3 0.0
-1.3975 0 0.0
-1.39762 0.05 0.0
-1.39786 0.15 0.0
-1.39274 0.1 0.0
-1.44957 0.85 0.0
-1.44946 0.8 0.0
-1.4523 0.95 0.0
-1.44968 0.9 0.0
-1.4499 1 0.0
-1.3981 0.25 0.0
-1.38798 0.2 0.0
-1.42141 0.55 0.0
-1.3987 0.5 0.0
-1.39834 0.35 0.0
-1.37845 0.4 0.0
-1.37607 0.45 0.0
-1.40784 0.65 0.0
-1.39894 0.6 0.0
-1.41185 0.75 0.0
-1.39918 0.7 0.0
-1.38322 0.3 0.0
-1.34729 0 0.0
-1.34492 0.05 0.0
-1.34018 0.15 0.0
-1.34255 0.1 0.0
-1.40707 0.85 0.0
-1.39941 0.8 0.0
-1.39977 0.95 0.0
-1.39965 0.9 0.0
-1.39989 1 0.0
-1.33781 0.2 0.0
-1.33544 0.25 0.0
-1.37131 0.55 0.0
-1.34859 0.5 0.0
-1.33833 0.4 0.0
-1.3307 0.35 0.0
-1.32595 0.45 0.0
-1.34885 0.6 0.0
-1.36655 0.65 0.0
-1.36179 0.75 0.0
-1.34911 0.7 0.0
-1.33307 0.3 0.0
-1.29708 0 0.0
-1.29722 0.05 0.0
-1.2975 0.15 0.0
-1.29236 0.1 0.0
-1.35703 0.85 0.0
-1.34937 0.8 0.0
-1.34988 1 0.0
-1.34962 0.9 0.0
-1.35226 0.95 0.0
-1.28528 0.25 0.0
-1.28764 0.2 0.0
-1.28931 0.35 0.0
-1.32121 0.55 0.0
-1.29848 0.5 0.0
-1.28709 0.45 0.0
-1.2982 0.4 0.0
-1.29876 0.6 0.0
-1.31647 0.65 0.0
-1.29918 0.75 0.0
-1.29904 0.7 0.0
-1.28292 0.3 0.0
-1.24687 0 0.0
-1.24702 0.05 0.0
-1.24717 0.1 0.0
-1.24732 0.15 0.0
-1.29946 0.85 0.0
-1.29932 0.8 0.0
-1.29987 1 0.0
-1.29974 0.95 0.0
-1.30462 0.9 0.0
-1.24762 0.25 0.0
-1.23747 0.2 0.0
-1.24792 0.35 0.0
-1.22807 0.4 0.0
-1.27111 0.55 0.0
-1.24837 0.5 0.0
-1.24822 0.45 0.0
-1.24867 0.6 0.0
-1.26639 0.65 0.0
-1.26167 0.75 0.0
-1.24897 0.7 0.0
-1.23277 0.3 0.0
-1.19667 0 0.0
-1.19683 0.05 0.0
-1.18964 0.15 0.0
-1.19198 0.1 0.0
-1.25695 0.85 0.0
-1.24927 0.8 0.0
-1.25223 0.95 0.0
-1.24987 1 0.0
-1.24957 0.9 0.0
-1.1873 0.2 0.0
-1.18496 0.25 0.0
-1.18028 0.35 0.0
-1.17794 0.4 0.0
-1.1981 0.45 0.0
-1.19842 0.55 0.0
-1.19826 0.5 0.0
-1.19858 0.6 0.0
-1.19874 0.65 0.0
-1.19906 0.75 0.0
-1.1989 0.7 0.0
-1.18262 0.3 0.0
-1.14646 0 0.0
-1.14663 0.05 0.0
-1.1418 0.1 0.0
-1.13713 0.2 0.0
-1.14697 0.15 0.0
-1.20691 0.85 0.0
-1.20926 0.8 0.0
-1.20221 0.95 0.0
-1.19986 1 0.0
-1.20456 0.9 0.0
-1.13997 0.3 0.0
-1.14731 0.25 0.0
-1.13781 0.4 0.0
-1.13014 0.35 0.0
-1.12548 0.45 0.0
-1.14815 0.5 0.0
-1.15962 0.55 0.0
-1.14849 0.6 0.0
-1.15745 0.65 0.0
-1.16155 0.75 0.0
-1.14917 0.8 0.0
-1.14883 0.7 0.0
-1.09625 0 0.0
-1.09661 0.1 0.0
-1.09393 0.05 0.0
-1.09697 0.2 0.0
-1.08929 0.15 0.0
-1.15687 0.85 0.0
-1.14985 1 0.0
-1.15219 0.95 0.0
-1.14951 0.9 0.0
-1.09733 0.3 0.0
-1.08465 0.25 0.0
-1.09769 0.4 0.0
-1.08 0.35 0.0
-1.08661 0.45 0.0
-1.09804 0.5 0.0
-1.12082 0.55 0.0
-1.10916 0.8 0.0
-1.10629 0.7 0.0
-1.0984 0.6 0.0
-1.11616 0.65 0.0
-1.11149 0.75 0.0
-1.04604 0 0.0
-1.04623 0.05 0.0
-1.04642 0.1 0.0
-1.0468 0.2 0.0
-1.03911 0.15 0.0
-1.09948 0.9 0.0
-1.0993 0.85 0.0
-1.09984 1 0.0
-1.09966 0.95 0.0
-1.04718 0.3 0.0
-1.03449 0.25 0.0
-1.04756 0.4 0.0
-1.02986 0.35 0.0
-1.04775 0.45 0.0
-1.04794 0.5 0.0
-1.04813 0.55 0.0
-1.05911 0.8 0.0
-1.04831 0.6 0.0
-1.06376 0.7 0.0
-1.0485 0.65 0.0
-1.04888 0.75 0.0
-0.995833 0 0.0
-0.991231 0.1 0.0
-0.996033 0.05 0.0
-0.986629 0.2 0.0
-0.98893 0.15 0.0
-1.05447 0.9 0.0
-1.04926 0.85 0.0
-1.04983 1 0.0
-1.04964 0.95 0.0
-0.984328 0.25 0.0
-0.99703 0.3 0.0
-0.997429 0.4 0.0
-0.997628 0.45 0.0
-0.979726 0.35 0.0
-0.997827 0.5 0.0
-0.998027 0.55 0.0
-0.998226 0.6 0.0
-0.961416 0.475 0.0
-1.00907 0.8 0.0
-0.998426 0.65 0.0
-0.998625 0.7 0.0
-1.01138 0.75 0.0
-0.945625 0 0.0
-0.946044 0.1 0.0
-0.943334 0.05 0.0
-0.946463 0.2 0.0
-0.938752 0.15 0.0
-1.00444 0.9 0.0
-1.00675 0.85 0.0
-0.999821 1 0.0
-1.00213 0.95 0.0
-0.93417 0.25 0.0
-0.946881 0.3 0.0
-0.9473 0.4 0.0
-0.929588 0.35 0.0
-0.925005 0.45 0.0
-0.960371 0.525 0.0
-0.959325 0.575 0.0
-0.958279 0.625 0.0
-0.922714 0.5 0.0
-0.959017 0.8 0.0
-0.957233 0.675 0.0
-0.952999 0.7125 0.0
-0.948766 0.75 0.0
-0.895417 0 0.0
-0.895855 0.1 0.0
-0.893136 0.05 0.0
-0.896294 0.2 0.0
-0.888573 0.15 0.0
-0.949184 0.85 0.0
-0.954415 0.9 0.0
-0.949812 1 0.0
-0.949603 0.95 0.0
-0.884011 0.25 0.0
-0.896733 0.3 0.0
-0.874887 0.45 0.0
-0.879449 0.35 0.0
-0.897171 0.4 0.0
-0.920423 0.55 0.0
-0.918132 0.6 0.0
-0.915841 0.65 0.0
-0.872606 0.5 0.0
-0.908968 0.8 0.0
-0.91355 0.7 0.0
-0.898707 0.75 0.0
-0.845208 0 0.0
-0.845438 0.05 0.0
-0.845667 0.1 0.0
-0.845896 0.15 0.0
-0.833853 0.25 0.0
-0.846126 0.2 0.0
-0.899146 0.85 0.0
-0.904386 0.9 0.0
-0.899584 0.95 0.0
-0.899804 1 0.0
-0.838062 0.35 0.0
[...]
POINT_DATA 10839
VECTORS Velocity float
0.21 0 0.0
0.24 0 0.0
0.2275 0 0.0
0.2475 0 0.0
0.25 0 0.0
0.2475 0 0.0
0 0 0.0
0.0475 0 0.0
0.1275 0 0.0
0.09 0 0.0
0.09 0 0.0
0.1275 0 0.0
0.1875 0 0.0
0.16 0 0.0
0.195557 -2.08358e-05 0.0
0.24284 -2.72566e-05 0.0
0.215776 -2.4619e-05 0.0
0.231406 -2.73884e-05 0.0
0.248724 -2.82478e-05 0.0
0.24 0 0.0
0.24284 -2.50025e-05 0.0
0.24852 -2.63799e-05 0.0
0 0 0.0
0.0622237 -3.61701e-06 0.0
0.0322263 -2.39085e-06 0.0
0.16 0 0.0
0.1875 0 0.0
0.21 0 0.0
0.2275 0 0.0
0.193592 -2.00929e-05 0.0
0.138888 -1.15323e-05 0.0
0 0 0.0
0.0475 0 0.0
0.099842 -8.26761e-06 0.0
0.0622209 -3.52533e-06 0.0
0.0998459 -9.42314e-06 0.0
0.13889 -1.31284e-05 0.0
0.174379 -3.29725e-05 0.0
0.201605 -4.50431e-05 0.0
0.235786 -5.34517e-05 0.0
0.244084 -5.48294e-05 0.0
0.2236 -7.30132e-05 0.0
0.24975 -5.52877e-05 0.0
0.249043 -5.99105e-05 0.0
0.231404 -2.46136e-05 0.0
0.244081 -4.96122e-05 0.0
0 0 0.0
0.0361062 -4.69503e-06 0.0
0.073611 -1.29818e-05 0.0
0.0622455 -1.43745e-05 0.0
0.174372 -2.76586e-05 0.0
0.220163 -3.81452e-05 0.0
0.201596 -3.79483e-05 0.0
0.11555 -1.72298e-05 0.0
0.146678 -2.59645e-05 0.0
0 0 0.0
0.0360885 -2.96141e-06 0.0
0.0693681 -9.31639e-06 0.0
0.0899876 -1.78201e-05 0.0
0.109389 -2.72816e-05 0.0
0.146691 -2.96023e-05 0.0
0.1789 -5.55803e-05 0.0
0.206291 -7.2482e-05 0.0
0.214497 -9.79262e-05 0.0
0.238524 -8.35971e-05 0.0
0.247347 -8.42673e-05 0.0
0.229602 -0.000108952 0.0
0.226325 -6.43597e-05 0.0
0.24998 -8.14177e-05 0.0
0.246425 -7.64129e-05 0.0
0.23668 -6.99185e-05 0.0
0 0 0.0
0.032247 -5.42075e-06 0.0
0.0956922 -3.10528e-05 0.0
0.0694218 -2.33654e-05 0.0
0.17888 -4.51648e-05 0.0
0.206272 -5.96467e-05 0.0
0.127483 -3.54402e-05 0.0
0.165882 -5.60471e-05 0.0
0.152331 -4.12899e-05 0.0
0 0 0.0
0.0360824 -4.08221e-06 0.0
0.062202 -1.23621e-05 0.0
0.0956388 -2.70684e-05 0.0
0.127522 -4.23623e-05 0.0
0.156658 -6.20281e-05 0.0
0.115595 -4.85634e-05 0.0
0.193622 -0.000103631 0.0
0.218134 -0.000130678 0.0
0.240934 -0.000113087 0.0
0.247731 -0.000113495 0.0
0.249995 -0.00011042 0.0
0.234388 -0.000147985 0.0
0.229578 -8.8153e-05 0.0
0.247724 -0.00010483 0.0
0.240918 -9.75664e-05 0.0
0 0 0.0
0.034481 -7.3194e-06 0.0
0.103112 -4.7234e-05 0.0
0.0622912 -2.24351e-05 0.0
0.189735 -6.88756e-05 0.0
0.212996 -9.39713e-05 0.0
0.170549 -7.3361e-05 0.0
0.144344 -5.60282e-05 0.0
0 0 0.0
0.0399054 -6.70198e-06 0.0
0.0998024 -3.65696e-05 0.0
0.0693349 -1.9667e-05 0.0
0.17062 -9.55917e-05 0.0
0.144416 -7.14367e-05 0.0
0.124368 -7.10989e-05 0.0
0.183644 -0.000122623 0.0
0.204124 -0.000147777 0.0
0.222026 -0.000172769 0.0
0.2491 -0.000139666 0.0
0.244015 -0.000150771 0.0
0.249108 -0.000148187 0.0
0.238532 -0.000189461 0.0
0.234353 -0.000117184 0.0
0.244876 -0.000139802 0.0
0 0 0.0
0.0322812 -6.64322e-06 0.0
0.0940608 -4.70746e-05 0.0
0.0651975 -2.39534e-05 0.0
0.196712 -9.70517e-05 0.0
0.217881 -0.000118108 0.0
0.177467 -9.62503e-05 0.0
0.148715 -7.20859e-05 0.0
0.120351 -5.27101e-05 0.0
0 0 0.0
0.0344019 -6.48178e-06 0.0
0.071666 -2.68878e-05 0.0
0.152418 -0.000104939 0.0
0.127605 -8.65736e-05 0.0
0.187572 -0.000155938 0.0
0.211938 -0.000196598 0.0
0.24859 -0.000168269 0.0
0.225665 -0.000220311 0.0
0.249763 -0.000181974 0.0
0.246453 -0.00018891 0.0
0.242033 -0.00023328 0.0
0.238486 -0.000146133 0.0
0 0 0.0
0.0338525 -5.30361e-06 0.0
0.0999754 -5.53102e-05 0.0
0.0695098 -2.07195e-05 0.0
0.206283 -0.000119615 0.0
0.222416 -0.000139263 0.0
0.19002 -0.000117359 0.0
0.168303 -0.000102239 0.0
0.143051 -8.60862e-05 0.0
0.12423 -6.72886e-05 0.0
0.0971154 -4.84056e-05 0.0
0 0 0.0
0.0360371 -9.31362e-06 0.0
0.0673447 -3.39787e-05 0.0
0.130329 -0.000101293 0.0
0.168479 -0.000153378 0.0
0.199463 -0.000208546 0.0
0.218358 -0.000245805 0.0
0.241978 -0.000176095 0.0
0.249968 -0.000213058 0.0
0.247963 -0.000194962 0.0
0.229048 -0.000274543 0.0
0.244885 -0.000277989 0.0
0.248701 -0.000237844 0.0
0.234441 -0.000165433 0.0
0 0 0.0
0.0361851 -6.39712e-07 0.0
0.122659 -9.22421e-05 0.0
0.0711731 -9.98041e-06 0.0
0.208382 -0.000132414 0.0
0.225138 -0.000155297 0.0
0.198106 -0.000126053 0.0
0.177796 -0.000114703 0.0
0.1466 -0.000101359 0.0
0.119193 -8.35557e-05 0.0
0.0970942 -5.96279e-05 0.0
0 0 0.0
0.0349551 -1.39999e-05 0.0
0.0673122 -4.62327e-05 0.0
0.15231 -0.000156248 0.0
0.17802 -0.000207976 0.0
0.210099 -0.000271561 0.0
0.244826 -0.000204903 0.0
0.249371 -0.000235375 0.0
0.232172 -0.000336207 0.0
0.244121 -0.000329285 0.0
0.2499 -0.000288141 0.0
0.249069 -0.000277746 0.0
0.235897 -0.000180753 0.0
0.212939 -0.000365217 0.0
0 0 0.0
0.0370732 6.21488e-06 0.0
0.141144 -0.000150072 0.0
0.0999431 -4.05301e-05 0.0
0.0665058 7.00191e-06 0.0
0.213667 -0.000139322 0.0
0.186703 -0.000117611 0.0
0.165196 -0.000114042 0.0
0.122337 -0.000105447 0.0
0.092928 -8.06086e-05 0.0
0 0 0.0
0.0349168 -2.06751e-05 0.0
0.0642562 -6.50423e-05 0.0
0.165627 -0.000223102 0.0
0.186979 -0.000279292 0.0
0.158195 -0.000241687 0.0
0.247028 -0.000237584 0.0
0.248579 -0.000280194 0.0
0.230979 -0.000408581 0.0
0.240422 -0.000403868 0.0
0.24863 -0.00035997 0.0
0.240158 -0.00020097 0.0
0.229252 -0.000157068 0.0
0.19919 -0.000380867 0.0
0.218586 -0.000463167 0.0
0 0 0.0
0.0345085 1.16526e-05 0.0
0.126246 -0.000128724 0.0
0.0680582 1.2082e-05 0.0
0.0988175 -4.01023e-05 0.0
0.20816 -0.000112267 0.0
0.189889 -0.000102843 0.0
0.168291 -0.000109675 0.0
0.140769 -0.000119197 0.0
0.0954992 -0.000109361 0.0
0 0 0.0
0.0332355 -2.79512e-05 0.0
0.0660794 -9.07325e-05 0.0
0.183283 -0.000374415 0.0
0.159389 -0.000306921 0.0
0.244793 -0.000236436 0.0
0.249476 -0.000331528 0.0
0.235831 -0.000500829 0.0
0.244684 -0.000463453 0.0
0.249184 -0.000403386 0.0
0.23854 -0.000180041 0.0
0.218465 -9.1946e-05 0.0
0.203115 -0.000506382 0.0
0.22328 -0.000571962 0.0
0 0 0.0
0.0476085 1.72072e-05 0.0
0.128078 -0.000189121 0.0
0.0903987 -3.82589e-05 0.0
0.202737 -6.86907e-05 0.0
0.178186 -7.56125e-05 0.0
0.148146 -0.000111765 0.0
0.1189 -0.000133134 0.0
0.0780952 -0.000123197 0.0
0 0 0.0
0.0341744 -3.89892e-05 0.0
0.187929 -0.000532353 0.0
0.160601 -0.000407249 0.0
0.246266 -0.000257903 0.0
0.249718 -0.000400412 0.0
0.239914 -0.000600381 0.0
0.247247 -0.000557187 0.0
0.239705 -0.000159148 0.0
0.22726 -6.78649e-05 0.0
0.209846 -8.69652e-06 0.0
0.227565 -0.000698564 0.0
0.210265 -0.000674003 0.0
0 0 0.0
0.0476192 2.17676e-06 0.0
0.128293 -0.000307787 0.0
0.0905203 -9.37226e-05 0.0
0.187432 -4.05959e-06 0.0
0.159989 -4.64392e-05 0.0
0.0471278 -6.95499e-05 0.0
0.127442 -0.000110826 0.0
0.0897531 -0.00013449 0.0
0 0 0.0
0.188062 -0.000723587 0.0
0.16081 -0.00058752 0.0
0.247113 -0.000279015 0.0
0.249568 -0.000451883 0.0
0.239829 -0.000745897 0.0
0.247089 -0.000670253 0.0
0.227169 2.82393e-05 0.0
0.239574 -0.000104876 0.0
0.187457 0.000124047 0.0
0.209802 0.000112221 0.0
0.227541 -0.000857284 0.0
0.210312 -0.000894341 0.0
0 0 0.0
0.0476839 -3.88017e-05 0.0
0.128564 -0.000519809 0.0
0.0907614 -0.000238911 0.0
0.127518 -2.72459e-05 0.0
0.160061 6.62328e-05 0.0
0.0470426 -6.13536e-05 0.0
0.0897506 -9.33586e-05 0.0
0 0 0.0
0.188208 -0.00099841 0.0
0.161054 -0.000865741 0.0
0.246933 -0.000265284 0.0
0.24936 -0.000503089 0.0
0.227485 -0.00105555 0.0
0.23963 -0.0010203 0.0
0.246877 -0.000803679 0.0
0.22706 0.000140933 0.0
0.239388 -1.81308e-05 0.0
0.187474 0.000268741 0.0
0.209739 0.000301277 0.0
0.210342 -0.00118578 0.0
0 0 0.0
0.0478598 -0.00010425 0.0
0.128972 -0.000912243 0.0
0.0911142 -0.000459778 0.0
0.127611 0.000115415 0.0
0.160155 0.000268913 0.0
0.0469941 -3.04185e-05 0.0
0.0898063 1.03883e-05 0.0
0 0 0.0
0.161324 -0.00126762 0.0
0.188386 -0.00148366 0.0
0.246679 -0.000238496 0.0
0.249065 -0.0005611 0.0
0.239443 -0.00122001 0.0
0.22733 -0.00147185 0.0
0.246571 -0.000963219 0.0
0.239127 0.000105616 0.0
0.22691 0.000295181 0.0
0.187483 0.000546758 0.0
0.209632 0.000564854 0.0
0.21034 -0.00157302 0.0
0 0 0.0
0.0481583 -0.000190199 0.0
0.129346 -0.00131094 0.0
0.0916521 -0.000765667 0.0
0.127773 0.000384659 0.0
0.160258 0.000585493 0.0
0 0 0.0
0.0899794 0.000199528 0.0
0.0470217 2.1153e-05 0.0
0.188493 -0.00202372 0.0
0.161604 -0.00180802 0.0
0.227157 -0.00180145 0.0
0.246334 -0.000193012 0.0
0.24867 -0.000624066 0.0
0.246259 -0.00110682 0.0
0.239202 -0.00145134 0.0
0.238769 0.000269929 0.0
0.226663 0.000538761 0.0
0.187452 0.0010501 0.0
0.209461 0.000915543 0.0
0.210279 -0.00204717 0.0
0 0 0.0
0.0486805 -0.000314576 0.0
0.0923345 -0.00110384 0.0
0.129896 -0.0018914 0.0
0.128056 0.00085243 0.0
0.16036 0.00103495 0.0
0 0 0.0
0.0471953 0.000105703 0.0
0.0902656 0.000444547 0.0
0.188542 -0.00250189 0.0
0.161899 -0.00248936 0.0
0.226915 -0.00218642 0.0
0.238611 -0.00193895 0.0
0.24587 -0.000130859 0.0
0.248144 -0.000689461 0.0
0.245875 -0.00127218 0.0
0.238291 0.000476118 0.0
0.226314 0.00085002 0.0
0.187369 0.00144286 0.0
0.209201 0.00135967 0.0
0.210134 -0.00262842 0.0
0 0 0.0
0.0494422 -0.000442818 0.0
0.130769 -0.00269825 0.0
0.0935208 -0.00159849 0.0
0.128335 0.00129757 0.0
0.160456 0.00161861 0.0
0.0475407 0.000208517 0.0
0 0 0.0
0.0908524 0.000822379 0.0
0.162204 -0.00329627 0.0
0.188551 -0.00346211 0.0
0.226357 -0.00292208 0.0
0.238003 -0.00235399 0.0
0.245237 -0.00151838 0.0
0.244952 -8.6975e-06 0.0
0.247465 -0.000771547 0.0
0.237668 0.000724921 0.0
0.225652 0.00137818 0.0
0.187169 0.00224878 0.0
0.208822 0.00189847 0.0
0.209888 -0.00331829 0.0
0 0 0.0
0.0504751 -0.000598019 0.0
0.0948971 -0.00207258 0.0
0.162552 -0.00420213 0.0
0.131528 -0.00335491 0.0
0.128802 0.0019234 0.0
0.160514 0.00216981 0.0
0.0481104 0.000336386 0.0
0 0 0.0
0.0915473 0.001172 0.0
0.209576 -0.0039816 0.0
0.188475 -0.00411866 0.0
0.237406 -0.00273553 0.0
0.225747 -0.0035691 0.0
0.244026 -0.00191708 0.0
0.246611 -0.000858666 0.0
0.244291 6.95808e-05 0.0
0.236876 0.00101167 0.0
0.225088 0.00175793 0.0
0.186944 0.00280355 0.0
0.160645 0.00313676 0.0
0.208309 0.00252398 0.0
0 0 0.0
0.0965044 -0.00251841 0.0
0.051817 -0.000761411 0.0
0.162878 -0.00500239 0.0
0.132904 -0.0042767 0.0
0.129441 0.0026252 0.0
0 0 0.0
0.048919 0.000465079 0.0
0.0927653 0.00164784 0.0
0.209168 -0.00470378 0.0
0.188303 -0.0053333 0.0
0.236684 -0.00313364 0.0
0.224986 -0.00428731 0.0
0.243173 -0.00216739 0.0
0.245547 -0.000958214 0.0
0.243536 0.000153505 0.0
0.160718 0.00381956 0.0
0.207736 0.00312096 0.0
0.235879 0.00133192 0.0
0.224416 0.00217359 0.0
0.186593 0.00362196 0.0
0 0 0.0
0.0532851 -0.000888793 0.0
0.0985431 -0.00299159 0.0
0.163353 -0.00600179 0.0
0.134354 -0.00506518 0.0
0.0942075 0.00209502 0.0
0.130403 0.00345045 0.0
0 0 0.0
0.0500482 0.000612881 0.0
0.208544 -0.00563707 0.0
0.188071 -0.00637389 0.0
0.235604 -0.00369413 0.0
0.224027 -0.00506272 0.0
0.242226 -0.00243264 0.0
0.24428 -0.0010707 0.0
0.241771 0.000333817 0.0
0.160917 0.00472826 0.0
0.234683 0.00168082 0.0
0.207058 0.00376214 0.0
0.22304 0.00293093 0.0
0.186017 0.0047193 0.0
0 0 0.0
0.101229 -0.00343895 0.0
0.0551904 -0.00101213 0.0
0.164139 -0.00720274 0.0
0.136146 -0.00580096 0.0
0.0957833 0.00248005 0.0
0.131528 0.00414268 0.0
0 0 0.0
0.0512833 0.000742922 0.0
0.187835 -0.00744931 0.0
0.207789 -0.00662613 0.0
0.2343 -0.00430201 0.0
0.240779 -0.00280758 0.0
0.222878 -0.0058995 0.0
0.242756 -0.00119747 0.0
0.240241 0.000451636 0.0
0.233242 0.00204718 0.0
0.24109 -0.00220783 0.0
0.161184 0.0055937 0.0
0.221738 0.00353456 0.0
0.205769 0.00479604 0.0
0.185608 0.00538697 0.0
0 0 0.0
0.103716 -0.00373952 0.0
0.0572545 -0.00113496 0.0
0.164789 -0.00794875 0.0
0.138246 -0.00645281 0.0
0.097799 0.00282216 0.0
0.132688 0.00469384 0.0
0 0 0.0
0.0527537 0.000825847 0.0
0.187616 -0.00851295 0.0
0.206898 -0.00765341 0.0
0.232766 -0.00494662 0.0
0.221533 -0.00678117 0.0
0.238233 -0.00340581 0.0
0.24075 -0.000379633 0.0
0.235979 0.00145918 0.0
0.22679 0.00321656 0.0
0.239996 -0.0014164 0.0
0.161629 0.00639794 0.0
0.213202 0.00479266 0.0
0.200131 0.0058152 0.0
0.184933 0.00649423 0.0
0 0 0.0
0.106704 -0.00399086 0.0
0.0594399 -0.00120817 0.0
0.165854 -0.00878724 0.0
0.140668 -0.0069687 0.0
0.134601 0.00531029 0.0
0.1001 0.00308115 0.0
0 0 0.0
0.0545748 0.000896308 0.0
0.187475 -0.00952065 0.0
0.205922 -0.00868498 0.0
0.23616 -0.00384298 0.0
0.220002 -0.00768536 0.0
0.230998 -0.00563525 0.0
0.237384 0.000632042 0.0
0.230424 0.00266192 0.0
0.21915 0.00455268 0.0
0.237805 -0.0015891 0.0
0.16225 0.00705324 0.0
0.203714 0.00613522 0.0
0.184412 0.00728554 0.0
0 0 0.0
0.0615527 -0.00124705 0.0
0.109884 -0.00413011 0.0
0.143001 -0.00726504 0.0
0.187482 -0.0104064 0.0
0.167173 -0.009471 0.0
0.136551 0.00568401 0.0
0.102585 0.00323912 0.0
0.0562799 0.000960901 0.0
0 0 0.0
0.218609 -0.00843695 0.0
0.204909 -0.00967458 0.0
0.234363 -0.00420756 0.0
0.228998 -0.00634447 0.0
0.217305 0.00514383 0.0
0.235188 0.000741149 0.0
0.228326 0.00303355 0.0
0.235343 -0.001785 0.0
0.184009 0.00792424 0.0
0.16333 0.0076044 0.0
0.201963 0.00704928 0.0
0 0 0.0
0.0638968 -0.00122209 0.0
0.113509 -0.00414761 0.0
0.145949 -0.00745117 0.0
0.187622 -0.010981 0.0
0.169208 -0.0100279 0.0
0.138747 0.00585211 0.0
0.105472 0.00326624 0.0
0.058099 0.000957178 0.0
0 0 0.0
0.14121 0.00578246 0.0
0.217146 -0.00915088 0.0
0.203599 -0.0108213 0.0
0.225826 -0.00733754 0.0
0.232415 -0.0045792 0.0
0.214557 0.00583558 0.0
0.225984 0.00337205 0.0
0.232722 0.000815873 0.0
0.232598 -0.00200749 0.0
0.183779 0.00836715 0.0
0.16455 0.00777328 0.0
0.200595 0.00757835 0.0
0 0 0.0
0.0661619 -0.00117698 0.0
0.11687 -0.00405634 0.0
0.149115 -0.00744661 0.0
0.188024 -0.0115205 0.0
0.171232 -0.0102261 0.0
0.0597587 0.000897557 0.0
0.108122 0.00313428 0.0
0 0 0.0
0.14333 0.00555064 0.0
0.215314 -0.00993473 0.0
0.202725 -0.0115117 0.0
0.223366 -0.00799062 0.0
0.229686 -0.00506537 0.0
0.212786 0.00612143 0.0
0.223436 0.00363297 0.0
0.229609 -0.00226903 0.0
0.228667 0.000846291 0.0
0.183737 0.00849889 0.0
0.166011 0.00764051 0.0
0.199296 0.00789227 0.0
0 0 0.0
0.0683809 -0.00112404 0.0
0.120123 -0.0038861 0.0
0.152885 -0.00721836 0.0
0.188912 -0.0118275 0.0
0.201998 -0.01197 0.0
0.173532 -0.0101744 0.0
0.061366 0.000799992 0.0
0.110677 0.00287797 0.0
0 0 0.0
0.145884 0.00505429 0.0
0.212833 -0.0107499 0.0
0.221297 -0.00846527 0.0
0.226763 -0.00553359 0.0
0.22722 -0.00249101 0.0
0.210999 0.00626299 0.0
0.220716 0.0037556 0.0
0.225615 0.00076056 0.0
0.167738 0.00718227 0.0
0.183914 0.00837423 0.0
0.198142 0.0079056 0.0
0 0 0.0
0.0704745 -0.00109439 0.0
0.123279 -0.00363974 0.0
0.156246 -0.00687094 0.0
0.189693 -0.0118059 0.0
0.201513 -0.0121628 0.0
0.176049 -0.00989253 0.0
0.0628019 0.000669752 0.0
0.11307 0.00250609 0.0
0 0 0.0
0.169155 0.00660517 0.0
0.115136 0.00205695 0.0
0.148685 0.00424506 0.0
0.211109 -0.0111325 0.0
0.219223 -0.00883493 0.0
0.222267 -0.0061505 0.0
0.224766 -0.00273613 0.0
0.223138 0.000617454 0.0
0.208866 0.00619344 0.0
0.216757 0.00361743 0.0
0.184463 0.00770877 0.0
0.197315 0.00762911 0.0
0.209799 -0.0112447 0.0
0 0 0.0
0.0723766 -0.00101246 0.0
0.15953 -0.00642316 0.0
0.126219 -0.00338341 0.0
0.201275 -0.0120874 0.0
0.191233 -0.0114354 0.0
0.17868 -0.00943098 0.0
0.0640967 0.000525411 0.0
0 0 0.0
0.185009 0.0070118 0.0
0.171035 0.00562164 0.0
0.15095 0.00335898 0.0
0.0648884 0.000415262 0.0
0.116874 0.00151984 0.0
0.216691 -0.00919304 0.0
0.219868 -0.00644002 0.0
0.221424 -0.00311274 0.0
0.218932 -0.00343956 0.0
0.220636 0.000376446 0.0
0.206848 0.00578459 0.0
0.213971 0.00320963 0.0
0.196648 0.00707735 0.0
0.20864 -0.0112216 0.0
0.0740134 -0.000960005 0.0
0 0 0.0
0.162169 -0.00602756 0.0
0.12893 -0.00313896 0.0
0.20127 -0.0117874 0.0
0.192361 -0.0110804 0.0
0.181347 -0.00887006 0.0
0 0 0.0
0.185783 0.00582881 0.0
0.17314 0.00416889 0.0
0.152542 0.00255251 0.0
0.0655327 0.000249761 0.0
0.118155 0.000988087 0.0
0.213312 -0.00943521 0.0
0.217506 -0.00669142 0.0
0.216528 -0.00380822 0.0
0.215982 -0.000339127 0.0
0.205016 0.00502417 0.0
0.211291 0.00251107 0.0
0.195927 0.00571182 0.0
0.207473 -0.0110557 0.0
0 0 0.0
0.0757093 -0.0008952 0.0
0.165093 -0.0056117 0.0
0.131196 -0.00296783 0.0
0.183927 -0.00829991 0.0
0.201505 -0.0113562 0.0
0.194288 -0.0103512 0.0
0 0 0.0
0 0 0.0
0.186659 0.00438855 0.0
0.174773 0.0028034 0.0
0.154114 0.00155957 0.0
0.119005 0.000463262 0.0
0.0658761 8.19894e-05 0.0
0.211213 -0.0094833 0.0
0.214626 -0.00699828 0.0
0.209309 0.00177623 0.0
0.213496 -0.00436029 0.0
0.213001 -0.00107804 0.0
0.203421 0.00391968 0.0
0.195612 0.00431325 0.0
0.209694 -0.00949291 0.0
0.206535 -0.0108043 0.0
0.077345 -0.00087407 0.0
0.133528 -0.0028421 0.0
0.167842 -0.00531519 0.0
0.185966 -0.0079158 0.0
0.201896 -0.0108975 0.0
0.195532 -0.00996649 0.0
0 0 0.0
0 0 0.0
0.175766 0.00172021 0.0
0.187624 0.00240828 0.0
0.119364 2.79681e-05 0.0
0.155317 0.000471293 0.0
0.0659266 -5.62367e-05 0.0
0.210912 -0.00744869 0.0
0.210761 -0.00501851 0.0
0.195411 0.00269841 0.0
0.20748 0.000879653 0.0
0.210842 -0.00176909 0.0
0.201595 0.00202748 0.0
0.208403 -0.00952021 0.0
0.205673 -0.0105236 0.0
0.202401 -0.0105468 0.0
0.0789476 -0.000924503 0.0
0.135793 -0.00284396 0.0
0.170692 -0.00521667 0.0
0.188277 -0.00757902 0.0
0.197501 -0.00947369 0.0
0 0 0.0
0 0 0.0
0.176884 0.00014584 0.0
0.188303 0.000791318 0.0
0.119418 -0.000458252 0.0
0.15586 -0.000391912 0.0
0.0657552 -0.000178019 0.0
0.208876 -0.00254387 0.0
0.208365 -0.00576446 0.0
0.208769 -0.00784965 0.0
0.195284 0.00101107 0.0
0.205481 -0.000420414 0.0
0.200534 0.000424064 0.0
0.188727 -0.000739349 0.0
0.206553 -0.00974999 0.0
0 0 0.0
0.205228 -0.0105346 0.0
0.199039 -0.00936258 0.0
0.202957 -0.0104062 0.0
0.0805209 -0.000995385 0.0
0.172753 -0.00532957 0.0
0.138249 -0.00305171 0.0
0.190869 -0.007595 0.0
0 0 0.0
0 0 0.0
0 0 0.0
0 0 0.0
0 0 0.0
0.065389 -0.000275042 0.0
0.155974 -0.00116271 0.0
0.177402 -0.00105127 0.0
0.119153 -0.000799713 0.0
0.206627 -0.00363565 0.0
0.206332 -0.00661346 0.0
0.206947 -0.00837455 0.0
0.199741 -0.000920514 0.0
0.195122 -0.000672445 0.0
0.20309 -0.0024065 0.0
0.194945 -0.00203024 0.0
0.188842 -0.00178645 0.0
0.205522 -0.0101778 0.0
0.204938 -0.0107634 0.0
0 0 0.0
-0.000146934 0.000111988 0.0
0 0 0.0
-0.000781205 0.00787936 0.0
0.203536 -0.0105932 0.0
0.200099 -0.00950936 0.0
0.0824177 -0.00114104 0.0
0.175042 -0.00570526 0.0
0.140588 -0.00343756 0.0
0.192892 -0.00799545 0.0
0 0 0.0
0 0 0.0
0 0 0.0
-0.00069022 0.00552789 0.0
-0.000385573 0.00090921 0.0
-0.000897409 0.000898862 0.0
0 0 0.0
0.0647944 -0.000367175 0.0
0.15574 -0.00171458 0.0
0.177487 -0.00209321 0.0
0.118427 -0.00114252 0.0
0.204721 -0.00482657 0.0
0.204601 -0.00756607 0.0
0.205428 -0.009035 0.0
0.19904 -0.00224308 0.0
0.201976 -0.00358525 0.0
0.194653 -0.00327448 0.0
0.188674 -0.00333862 0.0
0.204673 -0.0108363 0.0
0.204789 -0.0112083 0.0
0.204499 -0.0112269 0.0
0 0 0.0
-0.000904161 0.000383231 0.0
0 0 0.0
0 0 0.0
-0.00256611 0.0146969 0.0
-0.00292824 0.0113704 0.0
0.203556 -0.0109032 0.0
0.201374 -0.0100749 0.0
0.142863 -0.00396662 0.0
0.0844284 -0.00137771 0.0
0.177352 -0.00641952 0.0
0.194723 -0.00878656 0.0
0 0 0.0
-0.00180337 0.00435179 0.0
-0.00246139 0.00761103 0.0
-0.00190329 0.00270583 0.0
-0.0027579 0.00187711 0.0
0 0 0.0
0.0640755 -0.000442807 0.0
0.155135 -0.00227132 0.0
0.177184 -0.00297659 0.0
0.117513 -0.00140321 0.0
0.20308 -0.00605332 0.0
0.203141 -0.00861371 0.0
0.204145 -0.00987598 0.0
0.197971 -0.00431307 0.0
0.200943 -0.00473646 0.0
0.194179 -0.00460835 0.0
0.176607 -0.0037441 0.0
0.188274 -0.00440289 0.0
0.204064 -0.0115512 0.0
0.204564 -0.0119112 0.0
0.204368 -0.0118347 0.0
0 0 0.0
-0.00275944 0.000728094 0.0
0 0 0.0
0 0 0.0
0 0 0.0
0 0 0.0
-0.00587007 0.011567 0.0
-0.000605252 0.0115778 0.0
-0.00238811 0.0173272 0.0
-0.00574857 0.0211605 0.0
-0.00548989 0.0164122 0.0
0 0 0.0
4.57241e-05 0.0138916 0.0
0.202766 -0.011428 0.0
0.196171 -0.0097541 0.0
0 0 0.0
0.0871277 -0.00176648 0.0
0.145762 -0.00477816 0.0
0.180154 -0.00783115 0.0
0 0 0.0
0 0 0.0
-0.00464036 0.00724297 0.0
-0.00481786 0.00459838 0.0
-0.00572455 0.00273355 0.0
0 0 0.0
0.063173 -0.000509007 0.0
0.154071 -0.00280161 0.0
0.116356 -0.00161664 0.0
0.175855 -0.00424928 0.0
0.201674 -0.00731014 0.0
0.202157 -0.00946318 0.0
0.203019 -0.0109174 0.0
0.197303 -0.00546764 0.0
0.199783 -0.00613509 0.0
0.193531 -0.00578432 0.0
0.187731 -0.00508751 0.0
0.204588 -0.0126699 0.0
0.203466 -0.0124497 0.0
0.204199 -0.0135269 0.0