# vtk DataFile Version 3.0
Mesh NS-CD Problem
ASCII
DATASET UNSTRUCTURED_GRID
POINTS 10839 float
-2 0.3 0.0
-2 0.4 0.0
-2 0.35 0.0
-2 0.45 0.0
-2 0.5 0.0
-2 0.55 0.0
-2 0 0.0
-2 0.05 0.0
-2 0.85 0.0
-2 0.9 0.0
-2 0.1 0.0
-2 0.15 0.0
-2 0.25 0.0
-2 0.2 0.0
-1.96653 0.266667 0.0
-1.96524 0.415385 0.0
-1.96485 0.315 0.0
-1.96348 0.363636 0.0
-1.96414 0.464286 0.0
-2 0.6 0.0
-1.96538 0.584615 0.0
-1.96538 0.538462 0.0
-1.94979 0 0.0
-1.96653 0.0666666 0.0
-1.93306 0.0333333 0.0
-2 0.8 0.0
-2 0.75 0.0
-2 0.7 0.0
-2 0.65 0.0
-1.96249 0.7375 0.0
-1.96666 0.833333 0.0
-2 1 0.0
-2 0.95 0.0
-1.96249 0.8875 0.0
-1.96666 0.933333 0.0
-1.96234 0.1125 0.0
-1.96653 0.166667 0.0
-1.93724 0.225 0.0
-1.92971 0.28 0.0
-1.93048 0.380769 0.0
-1.93048 0.423077 0.0
-1.89958 0.3375 0.0
-1.9292 0.484203 0.0
-1.92117 0.530907 0.0
-1.96363 0.636364 0.0
-1.93076 0.576923 0.0
-1.89958 0 0.0
-1.88703 0.0375 0.0
-1.90963 0.08 0.0
-1.86611 0.0666666 0.0
-1.93749 0.775 0.0
-1.93635 0.672727 0.0
-1.92999 0.72 0.0
-1.93332 0.866667 0.0
-1.92856 0.821429 0.0
-1.94999 1 0.0
-1.92499 0.9625 0.0
-1.92499 0.925 0.0
-1.89998 0.9 0.0
-1.89958 0.125 0.0
-1.92827 0.178571 0.0
-1.89958 0.233333 0.0
-1.89045 0.290909 0.0
-1.86096 0.311538 0.0
-1.89241 0.392857 0.0
-1.89334 0.448489 0.0
-1.85655 0.357143 0.0
-1.89614 0.653846 0.0
-1.89427 0.504121 0.0
-1.8952 0.559753 0.0
-1.89614 0.615385 0.0
-1.84937 0 0.0
-1.83264 0.0333333 0.0
-1.85655 0.107143 0.0
-1.81172 0.075 0.0
-1.89998 0.766667 0.0
-1.89089 0.709091 0.0
-1.87498 0.85 0.0
-1.85998 0.79 0.0
-1.88748 0.8125 0.0
-1.89998 1 0.0
-1.88748 0.9625 0.0
-1.86664 0.933333 0.0
-1.85712 0.892857 0.0
-1.87448 0.15 0.0
-1.86611 0.194444 0.0
-1.83264 0.133333 0.0
-1.83264 0.2625 0.0
-1.82068 0.321429 0.0
-1.85664 0.404762 0.0
-1.85674 0.452381 0.0
-1.85683 0.5 0.0
-1.81184 0.375 0.0
-1.85712 0.642857 0.0
-1.85693 0.547619 0.0
-1.85702 0.595238 0.0
-1.79917 0 0.0
-1.78482 0.0357143 0.0
-1.79917 0.116667 0.0
-1.76569 0.0666666 0.0
-1.85452 0.745455 0.0
-1.82689 0.692308 0.0
-1.81815 0.781818 0.0
-1.82497 0.825 0.0
-1.84997 1 0.0
-1.8333 0.958333 0.0
-1.81247 0.8875 0.0
-1.81247 0.925 0.0
-1.81742 0.218182 0.0
-1.82427 0.175 0.0
-1.77634 0.145455 0.0
-1.79144 0.242308 0.0
-1.78482 0.285714 0.0
-1.77469 0.332653 0.0
-1.81215 0.529762 0.0
-1.81194 0.422619 0.0
-1.81203 0.470238 0.0
-1.76714 0.392857 0.0
-1.81234 0.625 0.0
-1.79732 0.571429 0.0
-1.74896 0 0.0
-1.73222 0.0333333 0.0
-1.75398 0.105 0.0
-1.71883 0.07 0.0
-1.79227 0.730769 0.0
-1.78007 0.679121 0.0
-1.75765 0.769231 0.0
-1.78178 0.818182 0.0
-1.78996 0.86 0.0
-1.79996 1 0.0
-1.78568 0.964286 0.0
-1.76663 0.922222 0.0
-1.76569 0.1875 0.0
-1.73222 0.15 0.0
-1.74896 0.25 0.0
-1.73714 0.304762 0.0
-1.76743 0.537202 0.0
-1.72869 0.343878 0.0
-1.76732 0.485119 0.0
-1.76723 0.440476 0.0
-1.72243 0.410714 0.0
-1.76757 0.607143 0.0
-1.69875 0 0.0
-1.68369 0.035 0.0
-1.69875 0.1125 0.0
-1.66528 0.075 0.0
-1.74341 0.708974 0.0
-1.73324 0.665934 0.0
-1.70441 0.74478 0.0
-1.71423 0.785714 0.0
-1.72303 0.826923 0.0
-1.74541 0.854545 0.0
-1.74541 0.890909 0.0
-1.74996 1 0.0
-1.73745 0.9625 0.0
-1.71359 0.927273 0.0
-1.68716 0.153846 0.0
-1.7131 0.214286 0.0
-1.70725 0.275 0.0
-1.69712 0.321939 0.0
-1.72279 0.589286 0.0
-1.72261 0.5 0.0
-1.7227 0.544643 0.0
-1.6827 0.355102 0.0
-1.67773 0.428571 0.0
-1.70763 0.464286 0.0
-1.70369 0.62449 0.0
-1.64854 0 0.0
-1.63181 0.0375 0.0
-1.64137 0.142857 0.0
-1.61764 0.0769231 0.0
-1.69458 0.703846 0.0
-1.67471 0.657437 0.0
-1.66143 0.727637 0.0
-1.67125 0.768571 0.0
-1.67851 0.821429 0.0
-1.68841 0.861538 0.0
-1.70904 0.890909 0.0
-1.69995 1 0.0
-1.68176 0.963636 0.0
-1.67267 0.927273 0.0
-1.65427 0.187143 0.0
-1.66718 0.231429 0.0
-1.66554 0.3 0.0
-1.67802 0.571429 0.0
-1.67792 0.523809 0.0
-1.6367 0.366327 0.0
-1.63682 0.423469 0.0
-1.62568 0.502976 0.0
-1.6629 0.470238 0.0
-1.65254 0.618367 0.0
-1.6059 0.307143 0.0
-1.59833 0 0.0
-1.58288 0.0384615 0.0
-1.60563 0.169643 0.0
-1.58179 0.112271 0.0
-1.56964 0.0714286 0.0
-1.64574 0.690385 0.0
-1.62827 0.751429 0.0
-1.63371 0.791071 0.0
-1.64279 0.857143 0.0
-1.65378 0.896154 0.0
-1.64994 1 0.0
-1.6363 0.963636 0.0
-1.61916 0.930769 0.0
-1.61345 0.209107 0.0
-1.62126 0.248571 0.0
-1.56989 0.196429 0.0
-1.63324 0.553571 0.0
-1.58846 0.535714 0.0
-1.59408 0.361905 0.0
-1.59161 0.402211 0.0
-1.58832 0.464286 0.0
-1.61504 0.598581 0.0
-1.59683 0.64359 0.0
-1.57899 0.274107 0.0
-1.56176 0.322381 0.0
-1.54812 0 0.0
-1.53378 0.0357143 0.0
-1.54593 0.147619 0.0
-1.53385 0.0732143 0.0
-1.53393 0.110714 0.0
-1.58522 0.704286 0.0
-1.58709 0.745 0.0
-1.58896 0.785714 0.0
-1.60695 0.830357 0.0
-1.60707 0.892857 0.0
-1.59993 1 0.0
-1.58454 0.965385 0.0
-1.57135 0.928571 0.0
-1.55209 0.241071 0.0
-1.5291 0.198214 0.0
-1.56936 0.570918 0.0
-1.54369 0.517857 0.0
-1.5464 0.380952 0.0
-1.54564 0.427721 0.0
-1.54488 0.47449 0.0
-1.55026 0.606122 0.0
-1.54222 0.677143 0.0
-1.52943 0.282857 0.0
-1.52143 0.33619 0.0
-1.49792 0 0.0
-1.49802 0.05 0.0
-1.49822 0.15 0.0
-1.49312 0.1 0.0
-1.5423 0.717143 0.0
-1.54419 0.767857 0.0
-1.54727 0.819048 0.0
-1.57122 0.861905 0.0
-1.53553 0.914286 0.0
-1.54992 1 0.0
-1.53563 0.964286 0.0
-1.49842 0.25 0.0
-1.48831 0.2 0.0
-1.5214 0.558929 0.0
-1.49891 0.5 0.0
-1.49871 0.4 0.0
-1.47631 0.45 0.0
-1.49911 0.6 0.0
-1.49921 0.65 0.0
-1.49931 0.7 0.0
-1.48111 0.35 0.0
-1.48351 0.3 0.0
-1.44771 0 0.0
-1.44782 0.05 0.0
-1.44804 0.15 0.0
-1.44793 0.1 0.0
-1.49941 0.75 0.0
-1.49951 0.8 0.0
-1.49981 0.95 0.0
-1.49961 0.85 0.0
-1.49971 0.9 0.0
-1.49991 1 0.0
-1.44826 0.25 0.0
-1.43815 0.2 0.0
-1.47151 0.55 0.0
-1.44881 0.5 0.0
-1.44859 0.4 0.0
-1.42619 0.45 0.0
-1.44913 0.65 0.0
-1.44902 0.6 0.0
-1.44935 0.75 0.0
-1.44924 0.7 0.0
-1.43972 0.35 0.0
-1.43336 0.3 0.0
-1.3975 0 0.0
-1.39762 0.05 0.0
-1.39786 0.15 0.0
-1.39274 0.1 0.0
-1.44957 0.85 0.0
-1.44946 0.8 0.0
-1.4523 0.95 0.0
-1.44968 0.9 0.0
-1.4499 1 0.0
-1.3981 0.25 0.0
-1.38798 0.2 0.0
-1.42141 0.55 0.0
-1.3987 0.5 0.0
-1.39834 0.35 0.0
-1.37845 0.4 0.0
-1.37607 0.45 0.0
-1.40784 0.65 0.0
-1.39894 0.6 0.0
-1.41185 0.75 0.0
-1.39918 0.7 0.0
-1.38322 0.3 0.0
-1.34729 0 0.0
-1.34492 0.05 0.0
-1.34018 0.15 0.0
-1.34255 0.1 0.0
-1.40707 0.85 0.0
-1.39941 0.8 0.0
-1.39977 0.95 0.0
-1.39965 0.9 0.0
-1.39989 1 0.0
-1.33781 0.2 0.0
-1.33544 0.25 0.0
-1.37131 0.55 0.0
-1.34859 0.5 0.0
-1.33833 0.4 0.0
-1.3307 0.35 0.0
-1.32595 0.45 0.0
-1.34885 0.6 0.0
-1.36655 0.65 0.0
-1.36179 0.75 0.0
-1.34911 0.7 0.0
-1.33307 0.3 0.0
-1.29708 0 0.0
-1.29722 0.05 0.0
-1.2975 0.15 0.0
-1.29236 0.1 0.0
-1.35703 0.85 0.0
-1.34937 0.8 0.0
-1.34988 1 0.0
-1.34962 0.9 0.0
-1.35226 0.95 0.0
-1.28528 0.25 0.0
-1.28764 0.2 0.0
-1.28931 0.35 0.0
-1.32121 0.55 0.0
-1.29848 0.5 0.0
-1.28709 0.45 0.0
-1.2982 0.4 0.0
-1.29876 0.6 0.0
-1.31647 0.65 0.0
-1.29918 0.75 0.0
-1.29904 0.7 0.0
-1.28292 0.3 0.0
-1.24687 0 0.0
-1.24702 0.05 0.0
-1.24717 0.1 0.0
-1.24732 0.15 0.0
-1.29946 0.85 0.0
-1.29932 0.8 0.0
-1.29987 1 0.0
-1.29974 0.95 0.0
-1.30462 0.9 0.0
-1.24762 0.25 0.0
-1.23747 0.2 0.0
-1.24792 0.35 0.0
-1.22807 0.4 0.0
-1.27111 0.55 0.0
-1.24837 0.5 0.0
-1.24822 0.45 0.0
-1.24867 0.6 0.0
-1.26639 0.65 0.0
-1.26167 0.75 0.0
-1.24897 0.7 0.0
-1.23277 0.3 0.0
-1.19667 0 0.0
-1.19683 0.05 0.0
-1.18964 0.15 0.0
-1.19198 0.1 0.0
-1.25695 0.85 0.0
-1.24927 0.8 0.0
-1.25223 0.95 0.0
-1.24987 1 0.0
-1.24957 0.9 0.0
-1.1873 0.2 0.0
-1.18496 0.25 0.0
-1.18028 0.35 0.0
-1.17794 0.4 0.0
-1.1981 0.45 0.0
-1.19842 0.55 0.0
-1.19826 0.5 0.0
-1.19858 0.6 0.0
-1.19874 0.65 0.0
-1.19906 0.75 0.0
-1.1989 0.7 0.0
-1.18262 0.3 0.0
-1.14646 0 0.0
-1.14663 0.05 0.0
-1.1418 0.1 0.0
-1.13713 0.2 0.0
-1.14697 0.15 0.0
-1.20691 0.85 0.0
-1.20926 0.8 0.0
-1.20221 0.95 0.0
-1.19986 1 0.0
-1.20456 0.9 0.0
-1.13997 0.3 0.0
-1.14731 0.25 0.0
-1.13781 0.4 0.0
-1.13014 0.35 0.0
-1.12548 0.45 0.0
-1.14815 0.5 0.0
-1.15962 0.55 0.0
-1.14849 0.6 0.0
-1.15745 0.65 0.0
-1.16155 0.75 0.0
-1.14917 0.8 0.0
-1.14883 0.7 0.0
-1.09625 0 0.0
-1.09661 0.1 0.0
-1.09393 0.05 0.0
-1.09697 0.2 0.0
-1.08929 0.15 0.0
-1.15687 0.85 0.0
-1.14985 1 0.0
-1.15219 0.95 0.0
-1.14951 0.9 0.0
-1.09733 0.3 0.0
-1.08465 0.25 0.0
-1.09769 0.4 0.0
-1.08 0.35 0.0
-1.08661 0.45 0.0
-1.09804 0.5 0.0
-1.12082 0.55 0.0
-1.10916 0.8 0.0
-1.10629 0.7 0.0
-1.0984 0.6 0.0
-1.11616 0.65 0.0
-1.11149 0.75 0.0
-1.04604 0 0.0
-1.04623 0.05 0.0
-1.04642 0.1 0.0
-1.0468 0.2 0.0
-1.03911 0.15 0.0
-1.09948 0.9 0.0
-1.0993 0.85 0.0
-1.09984 1 0.0
-1.09966 0.95 0.0
-1.04718 0.3 0.0
-1.03449 0.25 0.0
-1.04756 0.4 0.0
-1.02986 0.35 0.0
-1.04775 0.45 0.0
-1.04794 0.5 0.0
-1.04813 0.55 0.0
-1.05911 0.8 0.0
-1.04831 0.6 0.0
-1.06376 0.7 0.0
-1.0485 0.65 0.0
-1.04888 0.75 0.0
-0.995833 0 0.0
-0.991231 0.1 0.0
-0.996033 0.05 0.0
-0.986629 0.2 0.0
-0.98893 0.15 0.0
-1.05447 0.9 0.0
-1.04926 0.85 0.0
-1.04983 1 0.0
-1.04964 0.95 0.0
-0.984328 0.25 0.0
-0.99703 0.3 0.0
-0.997429 0.4 0.0
-0.997628 0.45 0.0
-0.979726 0.35 0.0
-0.997827 0.5 0.0
-0.998027 0.55 0.0
-0.998226 0.6 0.0
-0.961416 0.475 0.0
-1.00907 0.8 0.0
-0.998426 0.65 0.0
-0.998625 0.7 0.0
-1.01138 0.75 0.0
-0.945625 0 0.0
-0.946044 0.1 0.0
-0.943334 0.05 0.0
-0.946463 0.2 0.0
-0.938752 0.15 0.0
-1.00444 0.9 0.0
-1.00675 0.85 0.0
-0.999821 1 0.0
-1.00213 0.95 0.0
-0.93417 0.25 0.0
-0.946881 0.3 0.0
-0.9473 0.4 0.0
-0.929588 0.35 0.0
-0.925005 0.45 0.0
-0.960371 0.525 0.0
-0.959325 0.575 0.0
-0.958279 0.625 0.0
-0.922714 0.5 0.0
-0.959017 0.8 0.0
-0.957233 0.675 0.0
-0.952999 0.7125 0.0
-0.948766 0.75 0.0
-0.895417 0 0.0
-0.895855 0.1 0.0
-0.893136 0.05 0.0
-0.896294 0.2 0.0
-0.888573 0.15 0.0
-0.949184 0.85 0.0
-0.954415 0.9 0.0
-0.949812 1 0.0
-0.949603 0.95 0.0
-0.884011 0.25 0.0
-0.896733 0.3 0.0
-0.874887 0.45 0.0
-0.879449 0.35 0.0
-0.897171 0.4 0.0
-0.920423 0.55 0.0
-0.918132 0.6 0.0
-0.915841 0.65 0.0
-0.872606 0.5 0.0
-0.908968 0.8 0.0
-0.91355 0.7 0.0
-0.898707 0.75 0.0
-0.845208 0 0.0
-0.845438 0.05 0.0
-0.845667 0.1 0.0
-0.845896 0.15 0.0
-0.833853 0.25 0.0
-0.846126 0.2 0.0
-0.899146 0.85 0.0
-0.904386 0.9 0.0
-0.899584 0.95 0.0
-0.899804 1 0.0
-0.838062 0.35 0.0
[...]
POINT_DATA 10839
VECTORS Velocity float
0.21 0 0.0
0.24 0 0.0
0.2275 0 0.0
0.2475 0 0.0
0.25 0 0.0
0.2475 0 0.0
0 0 0.0
0.0475 0 0.0
0.1275 0 0.0
0.09 0 0.0
0.09 0 0.0
0.1275 0 0.0
0.1875 0 0.0
0.16 0 0.0
0.195557 -2.2342e-05 0.0
0.242841 -3.02044e-05 0.0
0.215776 -2.65054e-05 0.0
0.231406 -2.97928e-05 0.0
0.248725 -3.207e-05 0.0
0.24 0 0.0
0.24284 -2.99535e-05 0.0
0.24852 -3.08208e-05 0.0
0 0 0.0
0.0622238 -4.00175e-06 0.0
0.0322267 -2.64223e-06 0.0
0.16 0 0.0
0.1875 0 0.0
0.21 0 0.0
0.2275 0 0.0
0.193592 -2.47992e-05 0.0
0.138887 -1.39437e-05 0.0
0 0 0.0
0.0475 0 0.0
0.0998417 -9.79132e-06 0.0
0.0622207 -4.05143e-06 0.0
0.099846 -1.02642e-05 0.0
0.13889 -1.4169e-05 0.0
0.17438 -3.51994e-05 0.0
0.201605 -4.80073e-05 0.0
0.235787 -5.82726e-05 0.0
0.244084 -6.08301e-05 0.0
0.223601 -7.8078e-05 0.0
0.249751 -6.33463e-05 0.0
0.249044 -7.03866e-05 0.0
0.231404 -2.99994e-05 0.0
0.244081 -5.97331e-05 0.0
0 0 0.0
0.0361073 -5.0479e-06 0.0
0.0736118 -1.40551e-05 0.0
0.0622473 -1.53278e-05 0.0
0.174371 -3.43006e-05 0.0
0.220162 -4.73583e-05 0.0
0.201595 -4.74765e-05 0.0
0.115549 -2.08265e-05 0.0
0.146677 -3.19809e-05 0.0
0 0 0.0
0.0360877 -3.44152e-06 0.0
0.0693667 -1.10347e-05 0.0
0.0899848 -2.16309e-05 0.0
0.10939 -2.9298e-05 0.0
0.146691 -3.16738e-05 0.0
0.178901 -5.8752e-05 0.0
0.206292 -7.65147e-05 0.0
0.214499 -0.000102736 0.0
0.238526 -9.09567e-05 0.0
0.247349 -9.44138e-05 0.0
0.229605 -0.000115663 0.0
0.226324 -8.09419e-05 0.0
0.249982 -9.45912e-05 0.0
0.246427 -9.18249e-05 0.0
0.23668 -8.63644e-05 0.0
0 0 0.0
0.0322489 -5.67166e-06 0.0
0.0956941 -3.31301e-05 0.0
0.0694253 -2.49178e-05 0.0
0.178877 -5.70614e-05 0.0
0.20627 -7.59495e-05 0.0
0.127478 -4.42083e-05 0.0
0.165876 -7.18524e-05 0.0
0.152327 -5.18388e-05 0.0
0 0 0.0
0.0360803 -4.90495e-06 0.0
0.0621977 -1.51576e-05 0.0
0.0956328 -3.35334e-05 0.0
0.127523 -4.51191e-05 0.0
0.156659 -6.53395e-05 0.0
0.115597 -5.16164e-05 0.0
0.193623 -0.000107109 0.0
0.218138 -0.000135075 0.0
0.240938 -0.000122873 0.0
0.247736 -0.00012704 0.0
0.25 -0.000128039 0.0
0.234395 -0.000155764 0.0
0.229578 -0.000112419 0.0
0.247728 -0.000126046 0.0
0.24092 -0.00012135 0.0
0 0 0.0
0.034484 -7.81911e-06 0.0
0.103116 -5.05895e-05 0.0
0.0622969 -2.52128e-05 0.0
0.18973 -8.96108e-05 0.0
0.212992 -0.000124346 0.0
0.170539 -9.66675e-05 0.0
0.144334 -7.21067e-05 0.0
0 0 0.0
0.0399002 -8.35643e-06 0.0
0.0997916 -4.55939e-05 0.0
0.0693256 -2.43969e-05 0.0
0.17062 -9.87732e-05 0.0
0.144417 -7.49567e-05 0.0
0.12437 -7.57929e-05 0.0
0.183645 -0.000124561 0.0
0.204127 -0.000148838 0.0
0.222033 -0.000174735 0.0
0.249108 -0.000166948 0.0
0.244024 -0.000163822 0.0
0.249118 -0.000167686 0.0
0.238546 -0.00019753 0.0
0.234355 -0.000152276 0.0
0.244883 -0.000175146 0.0
0 0 0.0
0.032287 -8.27784e-06 0.0
0.0940661 -5.308e-05 0.0
0.065208 -3.18143e-05 0.0
0.196702 -0.00013274 0.0
0.217876 -0.000162595 0.0
0.177447 -0.000134142 0.0
0.148698 -9.44643e-05 0.0
0.120336 -6.66215e-05 0.0
0 0 0.0
0.034394 -7.9089e-06 0.0
0.0716517 -3.16552e-05 0.0
0.152417 -0.000108186 0.0
0.127605 -9.38787e-05 0.0
0.187571 -0.000154154 0.0
0.211944 -0.0001916 0.0
0.248605 -0.000205967 0.0
0.225678 -0.000216505 0.0
0.249781 -0.000208518 0.0
0.246471 -0.000205905 0.0
0.242058 -0.000241129 0.0
0.238492 -0.000193302 0.0
0 0 0.0
0.033867 -1.0361e-05 0.0
0.0999803 -7.06184e-05 0.0
0.0695308 -4.21616e-05 0.0
0.206268 -0.000173857 0.0
0.222411 -0.000202342 0.0
0.189988 -0.000179481 0.0
0.168267 -0.000145735 0.0
0.143017 -0.000112542 0.0
0.124205 -8.37388e-05 0.0
0.0970947 -5.66533e-05 0.0
0 0 0.0
0.0360262 -9.98588e-06 0.0
0.0673263 -3.37554e-05 0.0
0.130321 -0.000113203 0.0
0.168472 -0.000151545 0.0
0.199463 -0.00019757 0.0
0.218369 -0.000231387 0.0
0.241994 -0.000236732 0.0
0.249997 -0.000249543 0.0
0.247988 -0.000245314 0.0
0.229071 -0.000260394 0.0
0.244929 -0.000286088 0.0
0.248736 -0.000262784 0.0
0.23445 -0.000240961 0.0
0 0 0.0
0.0362218 -1.32388e-05 0.0
0.122641 -0.000115548 0.0
0.0712097 -4.9304e-05 0.0
0.208361 -0.000210543 0.0
0.225135 -0.000249793 0.0
0.198064 -0.000217116 0.0
0.177743 -0.000180758 0.0
0.146545 -0.000134502 0.0
0.11915 -9.48848e-05 0.0
0.0970657 -6.39788e-05 0.0
0 0 0.0
0.0349467 -1.11353e-05 0.0
0.067293 -3.79102e-05 0.0
0.152285 -0.000158175 0.0
0.178004 -0.000193541 0.0
0.210104 -0.0002446 0.0
0.244859 -0.000279661 0.0
0.249417 -0.000289401 0.0
0.232212 -0.00030631 0.0
0.244185 -0.000325699 0.0
0.249981 -0.000341676 0.0
0.249125 -0.000306433 0.0
0.235918 -0.000285875 0.0
0.212946 -0.000300031 0.0
0 0 0.0
0.0371466 -1.52171e-05 0.0
0.14109 -0.000160818 0.0
0.0999316 -9.5674e-05 0.0
0.0665747 -4.68656e-05 0.0
0.213643 -0.000253348 0.0
0.18663 -0.000220207 0.0
0.16511 -0.000180504 0.0
0.122266 -0.000113258 0.0
0.0928872 -7.0088e-05 0.0
0 0 0.0
0.0349197 -1.24622e-05 0.0
0.0642471 -4.0604e-05 0.0
0.165579 -0.000202659 0.0
0.186951 -0.000238754 0.0
0.158102 -0.000211768 0.0
0.247089 -0.000325485 0.0
0.248685 -0.000373437 0.0
0.231034 -0.00034571 0.0
0.240509 -0.000366158 0.0
0.248743 -0.000380298 0.0
0.240206 -0.000327212 0.0
0.229268 -0.000317829 0.0
0.199163 -0.000295077 0.0
0.218613 -0.00035297 0.0
0 0 0.0
0.03463 -1.41445e-05 0.0
0.126142 -0.000153872 0.0
0.068147 -5.12164e-05 0.0
0.098787 -0.000101484 0.0
0.208106 -0.000284877 0.0
0.189789 -0.000249377 0.0
0.16816 -0.000208956 0.0
0.140652 -0.000153924 0.0
0.0954377 -8.37409e-05 0.0
0 0 0.0
0.0332661 -1.30276e-05 0.0
0.0660825 -4.94519e-05 0.0
0.183202 -0.000279134 0.0
0.159238 -0.00023751 0.0
0.244896 -0.00037985 0.0
0.249646 -0.000422569 0.0
0.235938 -0.000405628 0.0
0.244835 -0.000423022 0.0
0.249358 -0.000428496 0.0
0.238625 -0.000379031 0.0
0.218444 -0.00033755 0.0
0.203081 -0.000347775 0.0
0.223344 -0.000406648 0.0
0 0 0.0
0.0477739 -2.65536e-05 0.0
0.12789 -0.000173224 0.0
0.0903841 -9.128e-05 0.0
0.202642 -0.000301875 0.0
0.17801 -0.000251144 0.0
0.147935 -0.000193303 0.0
0.118759 -0.00012994 0.0
0.0780629 -7.4121e-05 0.0
0 0 0.0
0.0342466 -1.61397e-05 0.0
0.187808 -0.000335065 0.0
0.160376 -0.000265567 0.0
0.246443 -0.000431233 0.0
0.249974 -0.000475398 0.0
0.240107 -0.000469915 0.0
0.247539 -0.000508189 0.0
0.23986 -0.000428394 0.0
0.227311 -0.000390898 0.0
0.209767 -0.00034585 0.0
0.227691 -0.000466095 0.0
0.210262 -0.000414405 0.0
0 0 0.0
0.0478227 -2.65431e-05 0.0
0.127984 -0.000190357 0.0
0.0904575 -9.52099e-05 0.0
0.187224 -0.000295725 0.0
0.159682 -0.00023859 0.0
0.0472206 -3.3613e-05 0.0
0.127146 -0.000173607 0.0
0.089637 -0.000103279 0.0
0 0 0.0
0.187885 -0.000383859 0.0
0.160471 -0.000300544 0.0
0.2474 -0.000485838 0.0
0.249959 -0.000534438 0.0
0.240126 -0.00053682 0.0
0.247537 -0.000575884 0.0
0.227268 -0.000428138 0.0
0.239823 -0.00047262 0.0
0.187169 -0.000323421 0.0
0.209717 -0.000377462 0.0
0.227723 -0.00052038 0.0
0.210323 -0.000477656 0.0
0 0 0.0
0.0478715 -2.53571e-05 0.0
0.128096 -0.000210198 0.0
0.0905571 -9.97655e-05 0.0
0.127075 -0.000197838 0.0
0.159621 -0.000264311 0.0
0.0471593 -4.05372e-05 0.0
0.0895587 -0.000120634 0.0
0 0 0.0
0.187976 -0.000442052 0.0
0.160584 -0.000343095 0.0
0.247368 -0.000537981 0.0
0.249936 -0.000597279 0.0
0.227756 -0.000583875 0.0
0.240148 -0.000646216 0.0
0.247529 -0.000651758 0.0
0.227225 -0.00045534 0.0
0.239777 -0.000515369 0.0
0.187126 -0.000340931 0.0
0.209662 -0.000404024 0.0
0.210393 -0.000553015 0.0
0 0 0.0
0.0479246 -2.43211e-05 0.0
0.128252 -0.000241908 0.0
0.0906618 -0.000106804 0.0
0.127014 -0.000217619 0.0
0.159559 -0.00028749 0.0
0.0470793 -4.93425e-05 0.0
0.0894719 -0.000140244 0.0
0 0 0.0
0.160721 -0.000397849 0.0
0.188114 -0.000534264 0.0
0.247325 -0.000591343 0.0
0.249902 -0.0006652 0.0
0.240157 -0.000722342 0.0
0.227816 -0.00070961 0.0
0.24751 -0.000736239 0.0
0.239719 -0.000554508 0.0
0.227177 -0.000479421 0.0
0.187068 -0.000358621 0.0
0.209601 -0.000422375 0.0
0.210472 -0.000647778 0.0
0 0 0.0
0.0479766 -2.54213e-05 0.0
0.128392 -0.000278634 0.0
0.0907844 -0.000122635 0.0
0.126942 -0.000238953 0.0
0.159499 -0.000304717 0.0
0 0 0.0
0.0893772 -0.000159846 0.0
0.0469937 -5.79369e-05 0.0
0.188245 -0.000638389 0.0
0.160883 -0.000473788 0.0
0.227852 -0.00080707 0.0
0.247267 -0.00064536 0.0
0.249851 -0.000739141 0.0
0.247485 -0.000810941 0.0
0.24016 -0.000808057 0.0
0.239645 -0.000588606 0.0
0.227108 -0.000500679 0.0
0.186996 -0.000363077 0.0
0.209533 -0.000428179 0.0
0.210559 -0.000763796 0.0
0 0 0.0
0.048039 -3.20958e-05 0.0
0.0909187 -0.000149591 0.0
0.128585 -0.000343852 0.0
0.126865 -0.000252087 0.0
0.159444 -0.000308856 0.0
0 0 0.0
0.046888 -6.61932e-05 0.0
0.0892901 -0.00017195 0.0
0.188358 -0.000735068 0.0
0.161078 -0.000582419 0.0
0.22788 -0.000922819 0.0
0.240144 -0.000990759 0.0
0.247188 -0.000699308 0.0
0.249777 -0.000818461 0.0
0.247448 -0.000894057 0.0
0.239549 -0.000615136 0.0
0.227024 -0.000509344 0.0
0.18695 -0.000350274 0.0
0.209455 -0.000414973 0.0
0.210653 -0.000912591 0.0
0 0 0.0
0.0481241 -4.44893e-05 0.0
0.128863 -0.000466354 0.0
0.0911298 -0.000212126 0.0
0.126813 -0.000246679 0.0
0.159396 -0.000291175 0.0
0.0467856 -7.00661e-05 0.0
0 0 0.0
0.0891873 -0.000174165 0.0
0.161304 -0.000735066 0.0
0.188566 -0.000948245 0.0
0.22792 -0.00115751 0.0
0.240105 -0.00115445 0.0
0.247373 -0.00101922 0.0
0.247025 -0.000773901 0.0
0.249672 -0.000908664 0.0
0.239423 -0.000631113 0.0
0.226877 -0.000493186 0.0
0.186874 -0.000291703 0.0
0.209363 -0.000375087 0.0
0.210749 -0.00110334 0.0
0 0 0.0
0.0482447 -6.84565e-05 0.0
0.0913843 -0.000297979 0.0
0.161566 -0.000939766 0.0
0.129107 -0.0005972 0.0
0.126766 -0.000212318 0.0
0.15936 -0.000253036 0.0
0.0466798 -6.80073e-05 0.0
0 0 0.0
0.089111 -0.000161318 0.0
0.210828 -0.00130085 0.0
0.1887 -0.00111991 0.0
0.240052 -0.00130877 0.0
0.22792 -0.00138788 0.0
0.247204 -0.00122872 0.0
0.249526 -0.00100565 0.0
0.246896 -0.00081269 0.0
0.239257 -0.000633567 0.0
0.226754 -0.000462846 0.0
0.186817 -0.000227645 0.0
0.159321 -0.000142962 0.0
0.209248 -0.000302293 0.0
0 0 0.0
0.0916958 -0.000412919 0.0
0.0484348 -0.000102123 0.0
0.161801 -0.00115868 0.0
0.129519 -0.000843592 0.0
0.126739 -0.000136577 0.0
0 0 0.0
0.0465887 -5.93815e-05 0.0
0.0890564 -0.000114337 0.0
0.210901 -0.00153634 0.0
0.188943 -0.0014878 0.0
0.239971 -0.00147971 0.0
0.227897 -0.00166323 0.0
0.247056 -0.00136788 0.0
0.249322 -0.00111478 0.0
0.246743 -0.000851368 0.0
0.159292 -2.69744e-05 0.0
0.209125 -0.000209323 0.0
0.239037 -0.000620731 0.0
0.226604 -0.000413894 0.0
0.18673 -9.84247e-05 0.0
0 0 0.0
0.0486828 -0.000144387 0.0
0.0921317 -0.000577789 0.0
0.162127 -0.0014917 0.0
0.129962 -0.00112615 0.0
0.0890652 -3.36465e-05 0.0
0.126744 9.54597e-06 0.0
0 0 0.0
0.0465301 -3.56337e-05 0.0
0.210963 -0.00187745 0.0
0.189137 -0.00186133 0.0
0.239824 -0.00173481 0.0
0.227828 -0.00198878 0.0
0.246885 -0.00152074 0.0
0.24906 -0.00123576 0.0
0.246353 -0.000912996 0.0
0.159267 0.000177558 0.0
0.238757 -0.00059139 0.0
0.208972 -8.59503e-05 0.0
0.226286 -0.00028617 0.0
0.186594 0.000140997 0.0
0 0 0.0
0.0927892 -0.000801362 0.0
0.0490585 -0.000213416 0.0
0.162577 -0.00199668 0.0
0.130513 -0.00147514 0.0
0.0891372 7.42367e-05 0.0
0.126797 0.000191887 0.0
0 0 0.0
0.0465196 -1.01405e-05 0.0
0.18933 -0.00231215 0.0
0.211002 -0.00228631 0.0
0.239613 -0.00203637 0.0
0.24659 -0.00174065 0.0
0.227706 -0.00237063 0.0
0.248709 -0.00136954 0.0
0.245974 -0.000959316 0.0
0.238393 -0.000547965 0.0
0.24796 -0.00170688 0.0
0.159238 0.000443412 0.0
0.225957 -0.000155942 0.0
0.208658 0.000169791 0.0
0.186475 0.000329186 0.0
0 0 0.0
0.0934774 -0.00102214 0.0
0.0495681 -0.00028739 0.0
0.162905 -0.00239467 0.0
0.131184 -0.00188356 0.0
0.0893094 0.000218653 0.0
0.126884 0.000393643 0.0
0 0 0.0
0.0465891 2.84511e-05 0.0
0.189515 -0.00283754 0.0
0.210996 -0.00276539 0.0
0.239315 -0.00237276 0.0
0.227518 -0.00281477 0.0
0.245993 -0.00211908 0.0
0.247611 -0.00124101 0.0
0.242436 -0.000744351 0.0
0.23244 -0.000256959 0.0
0.248 -0.00160112 0.0
0.159222 0.000774145 0.0
0.217616 0.000186617 0.0
0.2033 0.000481895 0.0
0.186245 0.000715105 0.0
0 0 0.0
0.094425 -0.00129917 0.0
0.050211 -0.00037033 0.0
0.163379 -0.00295453 0.0
0.131996 -0.00234316 0.0
0.127104 0.000725624 0.0
0.0896081 0.000394264 0.0
0 0 0.0
0.046773 8.51778e-05 0.0
0.189689 -0.00343623 0.0
0.210942 -0.00331228 0.0
0.245453 -0.00241175 0.0
0.227249 -0.00331262 0.0
0.238937 -0.0027646 0.0
0.245198 -0.00103276 0.0
0.237604 -0.000441997 0.0
0.225225 0.000122906 0.0
0.247377 -0.00177873 0.0
0.159204 0.00115074 0.0
0.208049 0.000622833 0.0
0.185986 0.00107815 0.0
0 0 0.0
0.0509752 -0.000457311 0.0
0.0955661 -0.00159366 0.0
0.132826 -0.00276603 0.0
0.189858 -0.00409558 0.0
0.163911 -0.00356764 0.0
0.127382 0.00105657 0.0
0.0900388 0.000590486 0.0
0.0470309 0.000146298 0.0
0 0 0.0
0.226963 -0.0037709 0.0
0.210831 -0.00392537 0.0
0.244946 -0.00266759 0.0
0.238442 -0.00320243 0.0
0.224637 0.000327261 0.0
0.244543 -0.00108056 0.0
0.236958 -0.000362527 0.0
0.246627 -0.0019771 0.0
0.185689 0.00148334 0.0
0.159222 0.00165811 0.0
0.207417 0.00103589 0.0
0 0 0.0
0.0519623 -0.000554475 0.0
0.0970956 -0.0019187 0.0
0.133962 -0.00329446 0.0
0.189978 -0.00464004 0.0
0.164674 -0.00437234 0.0
0.127777 0.00140679 0.0
0.0906969 0.000825343 0.0
0.0474307 0.000212442 0.0
0 0 0.0
0.12831 0.00176799 0.0
0.226612 -0.00425475 0.0
0.210602 -0.00481428 0.0
0.23757 -0.00389587 0.0
0.244364 -0.00294134 0.0
0.223645 0.000632828 0.0
0.236177 -0.000274648 0.0
0.243747 -0.00114052 0.0
0.245724 -0.00220377 0.0
0.185333 0.00191999 0.0
0.159257 0.00209354 0.0
0.206795 0.0013775 0.0
0 0 0.0
0.0531081 -0.000641211 0.0
0.0987413 -0.00222927 0.0
0.13528 -0.00382631 0.0
0.19015 -0.00538526 0.0
0.16541 -0.00506895 0.0
0.0479137 0.000269308 0.0
0.0914538 0.00102382 0.0
0 0 0.0
0.128837 0.00206298 0.0
0.226094 -0.00490135 0.0
0.210352 -0.00555558 0.0
0.236781 -0.00444138 0.0
0.243479 -0.00333748 0.0
0.222902 0.000814825 0.0
0.235254 -0.000190184 0.0
0.244671 -0.00245576 0.0
0.242338 -0.00125237 0.0
0.185028 0.00224854 0.0
0.159338 0.00251818 0.0
0.206081 0.00173448 0.0
0 0 0.0
0.0544461 -0.000740947 0.0
0.100616 -0.00253522 0.0
0.137054 -0.0044429 0.0
0.190397 -0.00637366 0.0
0.210053 -0.00634379 0.0
0.16628 -0.005781 0.0
0.0485141 0.000324467 0.0
0.092367 0.00120676 0.0
0 0 0.0
0.129595 0.00237182 0.0
0.225243 -0.0058425 0.0
0.236063 -0.00491764 0.0
0.242451 -0.00376859 0.0
0.243767 -0.0026725 0.0
0.222078 0.00100672 0.0
0.23416 -0.000127516 0.0
0.241148 -0.00135243 0.0
0.159492 0.00292323 0.0
0.184599 0.00267249 0.0
0.205251 0.00208307 0.0
0 0 0.0
0.0559899 -0.000851406 0.0
0.102735 -0.00283146 0.0
0.138843 -0.00496669 0.0
0.190565 -0.00698531 0.0
0.209709 -0.00716307 0.0
0.167294 -0.00649773 0.0
0.0492245 0.000363829 0.0
0.0934399 0.00136756 0.0
0 0 0.0
0.159642 0.00321181 0.0
0.0946328 0.00149864 0.0
0.130607 0.00265838 0.0
0.224477 -0.00661547 0.0
0.23525 -0.00541195 0.0
0.240678 -0.00446648 0.0
0.242773 -0.00290145 0.0
0.240122 -0.0014564 0.0
0.220943 0.00122597 0.0
0.232374 -5.58602e-05 0.0
0.184024 0.00316792 0.0
0.204464 0.00236009 0.0
0.22379 -0.00726548 0.0
0 0 0.0
0.0576386 -0.000933505 0.0
0.140881 -0.00546396 0.0
0.105062 -0.00311296 0.0
0.209341 -0.00802601 0.0
0.190939 -0.0080205 0.0
0.168463 -0.00720053 0.0
0.0500783 0.000409457 0.0
0 0 0.0
0.183662 0.0034124 0.0
0.159928 0.003512 0.0
0.131658 0.00281634 0.0
0.0508448 0.000440084 0.0
0.0959288 0.00156468 0.0
0.234129 -0.00607827 0.0
0.23958 -0.00488347 0.0
0.241288 -0.00324739 0.0
0.240059 -0.00354037 0.0
0.238976 -0.00156878 0.0
0.219648 0.00140691 0.0
0.230864 -4.37377e-05 0.0
0.203618 0.00261881 0.0
0.223029 -0.00794844 0.0
0.0593151 -0.0010129 0.0
0 0 0.0
0.142757 -0.00586368 0.0
0.107585 -0.00336118 0.0
0.208961 -0.00890881 0.0
0.191222 -0.00864466 0.0
0.169826 -0.0078906 0.0
0 0 0.0
0.183215 0.00369801 0.0
0.160373 0.00373611 0.0
0.132597 0.00289548 0.0
0.0516857 0.00043169 0.0
0.0972487 0.00157585 0.0
0.232309 -0.00710102 0.0
0.238397 -0.00531937 0.0
0.238722 -0.00384858 0.0
0.236559 -0.00183715 0.0
0.218229 0.00156263 0.0
0.229212 -6.49564e-05 0.0
0.202218 0.00293247 0.0
0.222054 -0.00882058 0.0
0 0 0.0
0.0612651 -0.00107393 0.0
0.145183 -0.00630201 0.0
0.110041 -0.0035688 0.0
0.17137 -0.00854184 0.0
0.208593 -0.00982328 0.0
0.19184 -0.00967214 0.0
0 0 0.0
0 0 0.0
0.182788 0.00386225 0.0
0.160898 0.00378648 0.0
0.133815 0.00287444 0.0
0.0985952 0.00151699 0.0
0.0525257 0.000403333 0.0
0.230854 -0.00788773 0.0
0.236708 -0.0059376 0.0
0.227752 -0.000114828 0.0
0.236788 -0.00430909 0.0
0.234643 -0.00209282 0.0
0.216669 0.00165427 0.0
0.201071 0.00308657 0.0
0.229591 -0.00856143 0.0
0.221001 -0.0097286 0.0
0.0633633 -0.00114614 0.0
0.112922 -0.0037785 0.0
0.147837 -0.00672046 0.0
0.1728 -0.0090542 0.0
0.20827 -0.0107404 0.0
0.192314 -0.0103003 0.0
0 0 0.0
0 0 0.0
0.161346 0.0037327 0.0
0.182351 0.00390352 0.0
0.0997515 0.00140812 0.0
0.13524 0.00270743 0.0
0.0532758 0.000363533 0.0
0.233977 -0.00690422 0.0
0.234652 -0.0048318 0.0
0.199915 0.00313209 0.0
0.226197 -0.000195206 0.0
0.233049 -0.00233011 0.0
0.214395 0.00166986 0.0
0.228268 -0.00924059 0.0
0.219535 -0.0110002 0.0
0.207994 -0.0116686 0.0
0.0656044 -0.00124493 0.0
0.115977 -0.0039866 0.0
0.151127 -0.00717044 0.0
0.174727 -0.00965308 0.0
0.193298 -0.0113072 0.0
0 0 0.0
0 0 0.0
0.162158 0.00345742 0.0
0.182115 0.00373771 0.0
0.101087 0.00118539 0.0
0.136499 0.00242259 0.0
0.0540087 0.000310794 0.0
0.231333 -0.0026006 0.0
0.232345 -0.00540556 0.0
0.231884 -0.00765852 0.0
0.198774 0.00305167 0.0
0.224123 -0.00037553 0.0
0.212603 0.00155276 0.0
0.181983 0.00338409 0.0
0.225779 -0.010504 0.0
0 0 0.0
0.218395 -0.0119889 0.0
0.194298 -0.0121011 0.0
0.207798 -0.0125953 0.0
0.0677852 -0.00131076 0.0
0.153796 -0.00749798 0.0
0.119507 -0.00424707 0.0
0.177348 -0.0103796 0.0
0 0 0.0
0 0 0.0
0 0 0.0
0 0 0.0
0 0 0.0
0.0545432 0.000237136 0.0
0.137718 0.00199726 0.0
0.162937 0.00301925 0.0
0.102037 0.000953113 0.0
0.228969 -0.00300003 0.0
0.229866 -0.00605551 0.0
0.229646 -0.00846925 0.0
0.211087 0.00136986 0.0
0.197665 0.00279113 0.0
0.220976 -0.000774191 0.0
0.196795 0.00241472 0.0
0.181936 0.0029914 0.0
0.223888 -0.0114704 0.0
0.21726 -0.0129722 0.0
0 0 0.0
2.64657e-05 1.26716e-05 0.0
0 0 0.0
-0.000626772 0.00524004 0.0
0.207713 -0.0135243 0.0
0.195163 -0.0126877 0.0
0.0703279 -0.00141256 0.0
0.157017 -0.00790572 0.0
0.122881 -0.00452699 0.0
0.179786 -0.0110049 0.0
0 0 0.0
0 0 0.0
0 0 0.0
-0.00052837 0.00342475 0.0
-0.000193242 0.000297449 0.0
-0.00036703 0.000349291 0.0
0 0 0.0
0.054902 0.000136989 0.0
0.138631 0.00156063 0.0
0.163716 0.00240806 0.0
0.102919 0.000616129 0.0
0.226459 -0.00350528 0.0
0.227231 -0.00677965 0.0
0.227272 -0.00932332 0.0
0.209587 0.00107537 0.0
0.219108 -0.00112594 0.0
0.195979 0.00189429 0.0
0.181953 0.00206246 0.0
0.221946 -0.0124509 0.0
0.217969 -0.0135981 0.0
0.212338 -0.0142118 0.0
0 0 0.0
-0.000277348 0.000173688 0.0
0 0 0.0
0 0 0.0
-0.00209673 0.0104248 0.0
-0.00230049 0.00769876 0.0
0.205154 -0.0142424 0.0
0.196436 -0.0135037 0.0
0.126051 -0.00483834 0.0
0.0728141 -0.0015562 0.0
0.160409 -0.00839916 0.0
0.182339 -0.0116798 0.0
0 0 0.0
-0.00119107 0.00242515 0.0
-0.00180768 0.00477779 0.0
-0.00109026 0.00138464 0.0
-0.00143133 0.0010317 0.0
0 0 0.0
0.0551069 3.54787e-05 0.0
0.139541 0.000945785 0.0
0.164452 0.00163854 0.0
0.103465 0.000258705 0.0
0.223806 -0.00410507 0.0
0.224485 -0.00758618 0.0
0.224791 -0.0102314 0.0
0.207122 0.000304228 0.0
0.217185 -0.00155918 0.0
0.195125 0.00104765 0.0
0.165143 0.000700242 0.0
0.18208 0.00107191 0.0
0.220372 -0.0132415 0.0
0.215443 -0.0146388 0.0
0.207773 -0.0151608 0.0
0 0 0.0
-0.00133557 0.000439449 0.0
0 0 0.0
0 0 0.0
0 0 0.0
0 0 0.0
-0.00448155 0.00801284 0.0
-0.000489905 0.00826885 0.0
-0.00196765 0.0126055 0.0
-0.0047756 0.0159797 0.0
-0.00445691 0.0119258 0.0
0 0 0.0
6.00508e-05 0.00995423 0.0
0.198188 -0.014623 0.0
0.184519 -0.0123162 0.0
0 0 0.0
0.0758345 -0.0017921 0.0
0.129787 -0.00528469 0.0
0.164512 -0.00922068 0.0
0 0 0.0
0 0 0.0
-0.00323433 0.00462921 0.0
-0.00305448 0.00285094 0.0
-0.00339968 0.00176884 0.0
0 0 0.0
0.0550856 -7.96428e-05 0.0
0.14028 0.000143727 0.0
0.103671 -0.000119681 0.0
0.165503 -9.78302e-05 0.0
0.221081 -0.004832 0.0
0.222375 -0.00824662 0.0
0.222235 -0.0112024 0.0