# vtk DataFile Version 3.0
Mesh NS-CD Problem
ASCII
DATASET UNSTRUCTURED_GRID
POINTS 10839 float
-2 0.3 0.0
-2 0.4 0.0
-2 0.35 0.0
-2 0.45 0.0
-2 0.5 0.0
-2 0.55 0.0
-2 0 0.0
-2 0.05 0.0
-2 0.85 0.0
-2 0.9 0.0
-2 0.1 0.0
-2 0.15 0.0
-2 0.25 0.0
-2 0.2 0.0
-1.96653 0.266667 0.0
-1.96524 0.415385 0.0
-1.96485 0.315 0.0
-1.96348 0.363636 0.0
-1.96414 0.464286 0.0
-2 0.6 0.0
-1.96538 0.584615 0.0
-1.96538 0.538462 0.0
-1.94979 0 0.0
-1.96653 0.0666666 0.0
-1.93306 0.0333333 0.0
-2 0.8 0.0
-2 0.75 0.0
-2 0.7 0.0
-2 0.65 0.0
-1.96249 0.7375 0.0
-1.96666 0.833333 0.0
-2 1 0.0
-2 0.95 0.0
-1.96249 0.8875 0.0
-1.96666 0.933333 0.0
-1.96234 0.1125 0.0
-1.96653 0.166667 0.0
-1.93724 0.225 0.0
-1.92971 0.28 0.0
-1.93048 0.380769 0.0
-1.93048 0.423077 0.0
-1.89958 0.3375 0.0
-1.9292 0.484203 0.0
-1.92117 0.530907 0.0
-1.96363 0.636364 0.0
-1.93076 0.576923 0.0
-1.89958 0 0.0
-1.88703 0.0375 0.0
-1.90963 0.08 0.0
-1.86611 0.0666666 0.0
-1.93749 0.775 0.0
-1.93635 0.672727 0.0
-1.92999 0.72 0.0
-1.93332 0.866667 0.0
-1.92856 0.821429 0.0
-1.94999 1 0.0
-1.92499 0.9625 0.0
-1.92499 0.925 0.0
-1.89998 0.9 0.0
-1.89958 0.125 0.0
-1.92827 0.178571 0.0
-1.89958 0.233333 0.0
-1.89045 0.290909 0.0
-1.86096 0.311538 0.0
-1.89241 0.392857 0.0
-1.89334 0.448489 0.0
-1.85655 0.357143 0.0
-1.89614 0.653846 0.0
-1.89427 0.504121 0.0
-1.8952 0.559753 0.0
-1.89614 0.615385 0.0
-1.84937 0 0.0
-1.83264 0.0333333 0.0
-1.85655 0.107143 0.0
-1.81172 0.075 0.0
-1.89998 0.766667 0.0
-1.89089 0.709091 0.0
-1.87498 0.85 0.0
-1.85998 0.79 0.0
-1.88748 0.8125 0.0
-1.89998 1 0.0
-1.88748 0.9625 0.0
-1.86664 0.933333 0.0
-1.85712 0.892857 0.0
-1.87448 0.15 0.0
-1.86611 0.194444 0.0
-1.83264 0.133333 0.0
-1.83264 0.2625 0.0
-1.82068 0.321429 0.0
-1.85664 0.404762 0.0
-1.85674 0.452381 0.0
-1.85683 0.5 0.0
-1.81184 0.375 0.0
-1.85712 0.642857 0.0
-1.85693 0.547619 0.0
-1.85702 0.595238 0.0
-1.79917 0 0.0
-1.78482 0.0357143 0.0
-1.79917 0.116667 0.0
-1.76569 0.0666666 0.0
-1.85452 0.745455 0.0
-1.82689 0.692308 0.0
-1.81815 0.781818 0.0
-1.82497 0.825 0.0
-1.84997 1 0.0
-1.8333 0.958333 0.0
-1.81247 0.8875 0.0
-1.81247 0.925 0.0
-1.81742 0.218182 0.0
-1.82427 0.175 0.0
-1.77634 0.145455 0.0
-1.79144 0.242308 0.0
-1.78482 0.285714 0.0
-1.77469 0.332653 0.0
-1.81215 0.529762 0.0
-1.81194 0.422619 0.0
-1.81203 0.470238 0.0
-1.76714 0.392857 0.0
-1.81234 0.625 0.0
-1.79732 0.571429 0.0
-1.74896 0 0.0
-1.73222 0.0333333 0.0
-1.75398 0.105 0.0
-1.71883 0.07 0.0
-1.79227 0.730769 0.0
-1.78007 0.679121 0.0
-1.75765 0.769231 0.0
-1.78178 0.818182 0.0
-1.78996 0.86 0.0
-1.79996 1 0.0
-1.78568 0.964286 0.0
-1.76663 0.922222 0.0
-1.76569 0.1875 0.0
-1.73222 0.15 0.0
-1.74896 0.25 0.0
-1.73714 0.304762 0.0
-1.76743 0.537202 0.0
-1.72869 0.343878 0.0
-1.76732 0.485119 0.0
-1.76723 0.440476 0.0
-1.72243 0.410714 0.0
-1.76757 0.607143 0.0
-1.69875 0 0.0
-1.68369 0.035 0.0
-1.69875 0.1125 0.0
-1.66528 0.075 0.0
-1.74341 0.708974 0.0
-1.73324 0.665934 0.0
-1.70441 0.74478 0.0
-1.71423 0.785714 0.0
-1.72303 0.826923 0.0
-1.74541 0.854545 0.0
-1.74541 0.890909 0.0
-1.74996 1 0.0
-1.73745 0.9625 0.0
-1.71359 0.927273 0.0
-1.68716 0.153846 0.0
-1.7131 0.214286 0.0
-1.70725 0.275 0.0
-1.69712 0.321939 0.0
-1.72279 0.589286 0.0
-1.72261 0.5 0.0
-1.7227 0.544643 0.0
-1.6827 0.355102 0.0
-1.67773 0.428571 0.0
-1.70763 0.464286 0.0
-1.70369 0.62449 0.0
-1.64854 0 0.0
-1.63181 0.0375 0.0
-1.64137 0.142857 0.0
-1.61764 0.0769231 0.0
-1.69458 0.703846 0.0
-1.67471 0.657437 0.0
-1.66143 0.727637 0.0
-1.67125 0.768571 0.0
-1.67851 0.821429 0.0
-1.68841 0.861538 0.0
-1.70904 0.890909 0.0
-1.69995 1 0.0
-1.68176 0.963636 0.0
-1.67267 0.927273 0.0
-1.65427 0.187143 0.0
-1.66718 0.231429 0.0
-1.66554 0.3 0.0
-1.67802 0.571429 0.0
-1.67792 0.523809 0.0
-1.6367 0.366327 0.0
-1.63682 0.423469 0.0
-1.62568 0.502976 0.0
-1.6629 0.470238 0.0
-1.65254 0.618367 0.0
-1.6059 0.307143 0.0
-1.59833 0 0.0
-1.58288 0.0384615 0.0
-1.60563 0.169643 0.0
-1.58179 0.112271 0.0
-1.56964 0.0714286 0.0
-1.64574 0.690385 0.0
-1.62827 0.751429 0.0
-1.63371 0.791071 0.0
-1.64279 0.857143 0.0
-1.65378 0.896154 0.0
-1.64994 1 0.0
-1.6363 0.963636 0.0
-1.61916 0.930769 0.0
-1.61345 0.209107 0.0
-1.62126 0.248571 0.0
-1.56989 0.196429 0.0
-1.63324 0.553571 0.0
-1.58846 0.535714 0.0
-1.59408 0.361905 0.0
-1.59161 0.402211 0.0
-1.58832 0.464286 0.0
-1.61504 0.598581 0.0
-1.59683 0.64359 0.0
-1.57899 0.274107 0.0
-1.56176 0.322381 0.0
-1.54812 0 0.0
-1.53378 0.0357143 0.0
-1.54593 0.147619 0.0
-1.53385 0.0732143 0.0
-1.53393 0.110714 0.0
-1.58522 0.704286 0.0
-1.58709 0.745 0.0
-1.58896 0.785714 0.0
-1.60695 0.830357 0.0
-1.60707 0.892857 0.0
-1.59993 1 0.0
-1.58454 0.965385 0.0
-1.57135 0.928571 0.0
-1.55209 0.241071 0.0
-1.5291 0.198214 0.0
-1.56936 0.570918 0.0
-1.54369 0.517857 0.0
-1.5464 0.380952 0.0
-1.54564 0.427721 0.0
-1.54488 0.47449 0.0
-1.55026 0.606122 0.0
-1.54222 0.677143 0.0
-1.52943 0.282857 0.0
-1.52143 0.33619 0.0
-1.49792 0 0.0
-1.49802 0.05 0.0
-1.49822 0.15 0.0
-1.49312 0.1 0.0
-1.5423 0.717143 0.0
-1.54419 0.767857 0.0
-1.54727 0.819048 0.0
-1.57122 0.861905 0.0
-1.53553 0.914286 0.0
-1.54992 1 0.0
-1.53563 0.964286 0.0
-1.49842 0.25 0.0
-1.48831 0.2 0.0
-1.5214 0.558929 0.0
-1.49891 0.5 0.0
-1.49871 0.4 0.0
-1.47631 0.45 0.0
-1.49911 0.6 0.0
-1.49921 0.65 0.0
-1.49931 0.7 0.0
-1.48111 0.35 0.0
-1.48351 0.3 0.0
-1.44771 0 0.0
-1.44782 0.05 0.0
-1.44804 0.15 0.0
-1.44793 0.1 0.0
-1.49941 0.75 0.0
-1.49951 0.8 0.0
-1.49981 0.95 0.0
-1.49961 0.85 0.0
-1.49971 0.9 0.0
-1.49991 1 0.0
-1.44826 0.25 0.0
-1.43815 0.2 0.0
-1.47151 0.55 0.0
-1.44881 0.5 0.0
-1.44859 0.4 0.0
-1.42619 0.45 0.0
-1.44913 0.65 0.0
-1.44902 0.6 0.0
-1.44935 0.75 0.0
-1.44924 0.7 0.0
-1.43972 0.35 0.0
-1.43336 0.3 0.0
-1.3975 0 0.0
-1.39762 0.05 0.0
-1.39786 0.15 0.0
-1.39274 0.1 0.0
-1.44957 0.85 0.0
-1.44946 0.8 0.0
-1.4523 0.95 0.0
-1.44968 0.9 0.0
-1.4499 1 0.0
-1.3981 0.25 0.0
-1.38798 0.2 0.0
-1.42141 0.55 0.0
-1.3987 0.5 0.0
-1.39834 0.35 0.0
-1.37845 0.4 0.0
-1.37607 0.45 0.0
-1.40784 0.65 0.0
-1.39894 0.6 0.0
-1.41185 0.75 0.0
-1.39918 0.7 0.0
-1.38322 0.3 0.0
-1.34729 0 0.0
-1.34492 0.05 0.0
-1.34018 0.15 0.0
-1.34255 0.1 0.0
-1.40707 0.85 0.0
-1.39941 0.8 0.0
-1.39977 0.95 0.0
-1.39965 0.9 0.0
-1.39989 1 0.0
-1.33781 0.2 0.0
-1.33544 0.25 0.0
-1.37131 0.55 0.0
-1.34859 0.5 0.0
-1.33833 0.4 0.0
-1.3307 0.35 0.0
-1.32595 0.45 0.0
-1.34885 0.6 0.0
-1.36655 0.65 0.0
-1.36179 0.75 0.0
-1.34911 0.7 0.0
-1.33307 0.3 0.0
-1.29708 0 0.0
-1.29722 0.05 0.0
-1.2975 0.15 0.0
-1.29236 0.1 0.0
-1.35703 0.85 0.0
-1.34937 0.8 0.0
-1.34988 1 0.0
-1.34962 0.9 0.0
-1.35226 0.95 0.0
-1.28528 0.25 0.0
-1.28764 0.2 0.0
-1.28931 0.35 0.0
-1.32121 0.55 0.0
-1.29848 0.5 0.0
-1.28709 0.45 0.0
-1.2982 0.4 0.0
-1.29876 0.6 0.0
-1.31647 0.65 0.0
-1.29918 0.75 0.0
-1.29904 0.7 0.0
-1.28292 0.3 0.0
-1.24687 0 0.0
-1.24702 0.05 0.0
-1.24717 0.1 0.0
-1.24732 0.15 0.0
-1.29946 0.85 0.0
-1.29932 0.8 0.0
-1.29987 1 0.0
-1.29974 0.95 0.0
-1.30462 0.9 0.0
-1.24762 0.25 0.0
-1.23747 0.2 0.0
-1.24792 0.35 0.0
-1.22807 0.4 0.0
-1.27111 0.55 0.0
-1.24837 0.5 0.0
-1.24822 0.45 0.0
-1.24867 0.6 0.0
-1.26639 0.65 0.0
-1.26167 0.75 0.0
-1.24897 0.7 0.0
-1.23277 0.3 0.0
-1.19667 0 0.0
-1.19683 0.05 0.0
-1.18964 0.15 0.0
-1.19198 0.1 0.0
-1.25695 0.85 0.0
-1.24927 0.8 0.0
-1.25223 0.95 0.0
-1.24987 1 0.0
-1.24957 0.9 0.0
-1.1873 0.2 0.0
-1.18496 0.25 0.0
-1.18028 0.35 0.0
-1.17794 0.4 0.0
-1.1981 0.45 0.0
-1.19842 0.55 0.0
-1.19826 0.5 0.0
-1.19858 0.6 0.0
-1.19874 0.65 0.0
-1.19906 0.75 0.0
-1.1989 0.7 0.0
-1.18262 0.3 0.0
-1.14646 0 0.0
-1.14663 0.05 0.0
-1.1418 0.1 0.0
-1.13713 0.2 0.0
-1.14697 0.15 0.0
-1.20691 0.85 0.0
-1.20926 0.8 0.0
-1.20221 0.95 0.0
-1.19986 1 0.0
-1.20456 0.9 0.0
-1.13997 0.3 0.0
-1.14731 0.25 0.0
-1.13781 0.4 0.0
-1.13014 0.35 0.0
-1.12548 0.45 0.0
-1.14815 0.5 0.0
-1.15962 0.55 0.0
-1.14849 0.6 0.0
-1.15745 0.65 0.0
-1.16155 0.75 0.0
-1.14917 0.8 0.0
-1.14883 0.7 0.0
-1.09625 0 0.0
-1.09661 0.1 0.0
-1.09393 0.05 0.0
-1.09697 0.2 0.0
-1.08929 0.15 0.0
-1.15687 0.85 0.0
-1.14985 1 0.0
-1.15219 0.95 0.0
-1.14951 0.9 0.0
-1.09733 0.3 0.0
-1.08465 0.25 0.0
-1.09769 0.4 0.0
-1.08 0.35 0.0
-1.08661 0.45 0.0
-1.09804 0.5 0.0
-1.12082 0.55 0.0
-1.10916 0.8 0.0
-1.10629 0.7 0.0
-1.0984 0.6 0.0
-1.11616 0.65 0.0
-1.11149 0.75 0.0
-1.04604 0 0.0
-1.04623 0.05 0.0
-1.04642 0.1 0.0
-1.0468 0.2 0.0
-1.03911 0.15 0.0
-1.09948 0.9 0.0
-1.0993 0.85 0.0
-1.09984 1 0.0
-1.09966 0.95 0.0
-1.04718 0.3 0.0
-1.03449 0.25 0.0
-1.04756 0.4 0.0
-1.02986 0.35 0.0
-1.04775 0.45 0.0
-1.04794 0.5 0.0
-1.04813 0.55 0.0
-1.05911 0.8 0.0
-1.04831 0.6 0.0
-1.06376 0.7 0.0
-1.0485 0.65 0.0
-1.04888 0.75 0.0
-0.995833 0 0.0
-0.991231 0.1 0.0
-0.996033 0.05 0.0
-0.986629 0.2 0.0
-0.98893 0.15 0.0
-1.05447 0.9 0.0
-1.04926 0.85 0.0
-1.04983 1 0.0
-1.04964 0.95 0.0
-0.984328 0.25 0.0
-0.99703 0.3 0.0
-0.997429 0.4 0.0
-0.997628 0.45 0.0
-0.979726 0.35 0.0
-0.997827 0.5 0.0
-0.998027 0.55 0.0
-0.998226 0.6 0.0
-0.961416 0.475 0.0
-1.00907 0.8 0.0
-0.998426 0.65 0.0
-0.998625 0.7 0.0
-1.01138 0.75 0.0
-0.945625 0 0.0
-0.946044 0.1 0.0
-0.943334 0.05 0.0
-0.946463 0.2 0.0
-0.938752 0.15 0.0
-1.00444 0.9 0.0
-1.00675 0.85 0.0
-0.999821 1 0.0
-1.00213 0.95 0.0
-0.93417 0.25 0.0
-0.946881 0.3 0.0
-0.9473 0.4 0.0
-0.929588 0.35 0.0
-0.925005 0.45 0.0
-0.960371 0.525 0.0
-0.959325 0.575 0.0
-0.958279 0.625 0.0
-0.922714 0.5 0.0
-0.959017 0.8 0.0
-0.957233 0.675 0.0
-0.952999 0.7125 0.0
-0.948766 0.75 0.0
-0.895417 0 0.0
-0.895855 0.1 0.0
-0.893136 0.05 0.0
-0.896294 0.2 0.0
-0.888573 0.15 0.0
-0.949184 0.85 0.0
-0.954415 0.9 0.0
-0.949812 1 0.0
-0.949603 0.95 0.0
-0.884011 0.25 0.0
-0.896733 0.3 0.0
-0.874887 0.45 0.0
-0.879449 0.35 0.0
-0.897171 0.4 0.0
-0.920423 0.55 0.0
-0.918132 0.6 0.0
-0.915841 0.65 0.0
-0.872606 0.5 0.0
-0.908968 0.8 0.0
-0.91355 0.7 0.0
-0.898707 0.75 0.0
-0.845208 0 0.0
-0.845438 0.05 0.0
-0.845667 0.1 0.0
-0.845896 0.15 0.0
-0.833853 0.25 0.0
-0.846126 0.2 0.0
-0.899146 0.85 0.0
-0.904386 0.9 0.0
-0.899584 0.95 0.0
-0.899804 1 0.0
-0.838062 0.35 0.0
[...]
POINT_DATA 10839
VECTORS Velocity float
0.21 0 0.0
0.24 0 0.0
0.2275 0 0.0
0.2475 0 0.0
0.25 0 0.0
0.2475 0 0.0
0 0 0.0
0.0475 0 0.0
0.1275 0 0.0
0.09 0 0.0
0.09 0 0.0
0.1275 0 0.0
0.1875 0 0.0
0.16 0 0.0
0.195557 -2.21562e-05 0.0
0.242841 -2.99237e-05 0.0
0.215776 -2.62798e-05 0.0
0.231406 -2.953e-05 0.0
0.248725 -3.17537e-05 0.0
0.24 0 0.0
0.24284 -2.96242e-05 0.0
0.24852 -3.04978e-05 0.0
0 0 0.0
0.0622238 -3.968e-06 0.0
0.0322267 -2.61912e-06 0.0
0.16 0 0.0
0.1875 0 0.0
0.21 0 0.0
0.2275 0 0.0
0.193592 -2.45158e-05 0.0
0.138887 -1.37958e-05 0.0
0 0 0.0
0.0475 0 0.0
0.0998417 -9.69579e-06 0.0
0.0622207 -4.0168e-06 0.0
0.099846 -1.01788e-05 0.0
0.13889 -1.40523e-05 0.0
0.174379 -3.49097e-05 0.0
0.201605 -4.7607e-05 0.0
0.235787 -5.7747e-05 0.0
0.244084 -6.02549e-05 0.0
0.223601 -7.74042e-05 0.0
0.249751 -6.27003e-05 0.0
0.249044 -6.96285e-05 0.0
0.231404 -2.96598e-05 0.0
0.244081 -5.90622e-05 0.0
0 0 0.0
0.0361072 -5.00265e-06 0.0
0.0736117 -1.39329e-05 0.0
0.0622471 -1.51933e-05 0.0
0.174371 -3.39048e-05 0.0
0.220162 -4.68015e-05 0.0
0.201595 -4.69121e-05 0.0
0.115549 -2.06067e-05 0.0
0.146677 -3.16198e-05 0.0
0 0 0.0
0.0360878 -3.41214e-06 0.0
0.0693668 -1.093e-05 0.0
0.0899849 -2.14045e-05 0.0
0.10939 -2.90507e-05 0.0
0.146691 -3.14133e-05 0.0
0.178901 -5.8273e-05 0.0
0.206292 -7.58816e-05 0.0
0.214499 -0.000101886 0.0
0.238526 -9.01266e-05 0.0
0.247349 -9.34861e-05 0.0
0.229605 -0.000114663 0.0
0.226324 -7.99535e-05 0.0
0.249982 -9.35855e-05 0.0
0.246427 -9.0784e-05 0.0
0.236681 -8.53389e-05 0.0
0 0 0.0
0.0322486 -5.62211e-06 0.0
0.0956939 -3.28494e-05 0.0
0.0694249 -2.47096e-05 0.0
0.178877 -5.63681e-05 0.0
0.20627 -7.50049e-05 0.0
0.127479 -4.36891e-05 0.0
0.165876 -7.09437e-05 0.0
0.152327 -5.12176e-05 0.0
0 0 0.0
0.0360805 -4.86021e-06 0.0
0.0621979 -1.50031e-05 0.0
0.0956332 -3.31546e-05 0.0
0.127522 -4.47453e-05 0.0
0.156659 -6.4812e-05 0.0
0.115597 -5.11923e-05 0.0
0.193623 -0.000106264 0.0
0.218138 -0.000133984 0.0
0.240938 -0.000121738 0.0
0.247736 -0.000125777 0.0
0.25 -0.000126665 0.0
0.234395 -0.00015442 0.0
0.229578 -0.000110997 0.0
0.247727 -0.000124597 0.0
0.24092 -0.000119873 0.0
0 0 0.0
0.0344836 -7.75613e-06 0.0
0.103115 -5.01789e-05 0.0
0.0622963 -2.50135e-05 0.0
0.18973 -8.84452e-05 0.0
0.212992 -0.00012267 0.0
0.170539 -9.5365e-05 0.0
0.144335 -7.1173e-05 0.0
0 0 0.0
0.0399005 -8.27106e-06 0.0
0.0997923 -4.504e-05 0.0
0.0693262 -2.41172e-05 0.0
0.17062 -9.80086e-05 0.0
0.144417 -7.43609e-05 0.0
0.12437 -7.51998e-05 0.0
0.183644 -0.000123629 0.0
0.204126 -0.000147725 0.0
0.222033 -0.000173384 0.0
0.249108 -0.000165022 0.0
0.244024 -0.000162279 0.0
0.249118 -0.00016595 0.0
0.238546 -0.000195835 0.0
0.234355 -0.000150267 0.0
0.244883 -0.000172948 0.0
0 0 0.0
0.0322865 -8.21721e-06 0.0
0.0940654 -5.26593e-05 0.0
0.0652071 -3.1563e-05 0.0
0.196702 -0.000130847 0.0
0.217876 -0.000160255 0.0
0.177448 -0.000132145 0.0
0.148699 -9.31626e-05 0.0
0.120337 -6.57541e-05 0.0
0 0 0.0
0.0343944 -7.82244e-06 0.0
0.0716526 -3.12642e-05 0.0
0.152417 -0.000107381 0.0
0.127604 -9.31669e-05 0.0
0.18757 -0.000153085 0.0
0.211943 -0.000190282 0.0
0.248605 -0.000203457 0.0
0.225677 -0.000214945 0.0
0.24978 -0.000206268 0.0
0.24647 -0.000203917 0.0
0.242057 -0.000239069 0.0
0.238492 -0.000190654 0.0
0 0 0.0
0.0338663 -1.02773e-05 0.0
0.0999793 -7.00357e-05 0.0
0.0695295 -4.17353e-05 0.0
0.206269 -0.000171161 0.0
0.222411 -0.000199208 0.0
0.18999 -0.000176509 0.0
0.168269 -0.000143449 0.0
0.143019 -0.00011089 0.0
0.124206 -8.25867e-05 0.0
0.097096 -5.59095e-05 0.0
0 0 0.0
0.0360269 -9.86473e-06 0.0
0.0673276 -3.33321e-05 0.0
0.13032 -0.000112345 0.0
0.168471 -0.00015054 0.0
0.199462 -0.000196355 0.0
0.218368 -0.000229955 0.0
0.241994 -0.000233378 0.0
0.249996 -0.000246693 0.0
0.247988 -0.000242149 0.0
0.22907 -0.000258709 0.0
0.244928 -0.000283635 0.0
0.248735 -0.000260111 0.0
0.23445 -0.000237192 0.0
0 0 0.0
0.0362207 -1.30592e-05 0.0
0.122639 -0.000114538 0.0
0.0712079 -4.85391e-05 0.0
0.208362 -0.00020695 0.0
0.225136 -0.00024547 0.0
0.198066 -0.000213143 0.0
0.177746 -0.000177642 0.0
0.146547 -0.000132429 0.0
0.119152 -9.35713e-05 0.0
0.0970674 -6.31362e-05 0.0
0 0 0.0
0.0349478 -1.10102e-05 0.0
0.0672948 -3.74844e-05 0.0
0.152285 -0.000157126 0.0
0.178003 -0.00019247 0.0
0.210103 -0.00024335 0.0
0.244858 -0.000275574 0.0
0.249416 -0.000285757 0.0
0.232211 -0.000304613 0.0
0.244184 -0.000323202 0.0
0.249979 -0.000337577 0.0
0.249124 -0.000303289 0.0
0.235918 -0.000280968 0.0
0.212945 -0.00029919 0.0
0 0 0.0
0.0371448 -1.48304e-05 0.0
0.141089 -0.000159545 0.0
0.0999297 -9.40499e-05 0.0
0.0665721 -4.56133e-05 0.0
0.213645 -0.000248517 0.0
0.186633 -0.000215939 0.0
0.165113 -0.000177343 0.0
0.122269 -0.000111757 0.0
0.0928897 -6.93056e-05 0.0
0 0 0.0
0.034921 -1.23759e-05 0.0
0.0642494 -4.0398e-05 0.0
0.165578 -0.000201624 0.0
0.18695 -0.000237835 0.0
0.158101 -0.000210642 0.0
0.247088 -0.000320647 0.0
0.248682 -0.000368013 0.0
0.231032 -0.000344496 0.0
0.240506 -0.000364184 0.0
0.24874 -0.00037672 0.0
0.240206 -0.000321376 0.0
0.229268 -0.000311237 0.0
0.199162 -0.000294666 0.0
0.218611 -0.000352777 0.0
0 0 0.0
0.034627 -1.34743e-05 0.0
0.126141 -0.000151764 0.0
0.0681434 -4.92443e-05 0.0
0.0987849 -9.88595e-05 0.0
0.208109 -0.000278395 0.0
0.189793 -0.000243921 0.0
0.168164 -0.000204946 0.0
0.140656 -0.000151633 0.0
0.095441 -8.31497e-05 0.0
0 0 0.0
0.0332674 -1.30897e-05 0.0
0.0660851 -4.97098e-05 0.0
0.183202 -0.000278853 0.0
0.159239 -0.000236554 0.0
0.244894 -0.000373043 0.0
0.249641 -0.000416739 0.0
0.235934 -0.000404801 0.0
0.244831 -0.000420697 0.0
0.249353 -0.0004244 0.0
0.238624 -0.000370792 0.0
0.218446 -0.000328722 0.0
0.20308 -0.000348547 0.0
0.223342 -0.000407472 0.0
0 0 0.0
0.0477688 -2.48229e-05 0.0
0.12789 -0.000170456 0.0
0.090381 -8.76502e-05 0.0
0.202646 -0.000293918 0.0
0.178016 -0.000245292 0.0
0.147941 -0.000190227 0.0
0.118764 -0.000128826 0.0
0.0780663 -7.49514e-05 0.0
0 0 0.0
0.0342475 -1.65146e-05 0.0
0.187809 -0.000336344 0.0
0.160379 -0.00026518 0.0
0.246439 -0.00042308 0.0
0.249967 -0.000469516 0.0
0.240101 -0.000469653 0.0
0.247531 -0.000505531 0.0
0.239858 -0.000417653 0.0
0.227312 -0.000379348 0.0
0.209772 -0.000334845 0.0
0.227686 -0.000468409 0.0
0.210261 -0.000417228 0.0
0 0 0.0
0.0478144 -2.40023e-05 0.0
0.127987 -0.000187231 0.0
0.0904538 -9.0388e-05 0.0
0.187232 -0.000286984 0.0
0.159692 -0.000233449 0.0
0.0472212 -3.47404e-05 0.0
0.127155 -0.000172476 0.0
0.0896422 -0.000104742 0.0
0 0 0.0
0.187887 -0.000387704 0.0
0.160476 -0.000301749 0.0
0.247393 -0.00047612 0.0
0.249948 -0.000527821 0.0
0.240118 -0.000538475 0.0
0.247525 -0.000574204 0.0
0.227268 -0.000412372 0.0
0.239818 -0.000458433 0.0
0.18718 -0.000311132 0.0
0.209723 -0.000362173 0.0
0.227718 -0.000525327 0.0
0.210322 -0.000484183 0.0
0 0 0.0
0.0478591 -2.23039e-05 0.0
0.128104 -0.000208108 0.0
0.0905535 -9.43735e-05 0.0
0.127089 -0.000196709 0.0
0.159635 -0.000257164 0.0
0.047158 -4.24124e-05 0.0
0.0895652 -0.000123224 0.0
0 0 0.0
0.187982 -0.000450504 0.0
0.160595 -0.000347919 0.0
0.247357 -0.000525634 0.0
0.24992 -0.000589764 0.0
0.227749 -0.000592627 0.0
0.240134 -0.000652706 0.0
0.247511 -0.000651633 0.0
0.227225 -0.000434988 0.0
0.239769 -0.000496428 0.0
0.187141 -0.000324746 0.0
0.209669 -0.000382271 0.0
0.210392 -0.000565367 0.0
0 0 0.0
0.047908 -2.12149e-05 0.0
0.128268 -0.000244694 0.0
0.0906599 -0.000103124 0.0
0.127033 -0.000215351 0.0
0.15958 -0.000276515 0.0
0.0470751 -5.18118e-05 0.0
0.0894802 -0.000143278 0.0
0 0 0.0
0.160739 -0.000409773 0.0
0.188124 -0.000552737 0.0
0.247308 -0.000575651 0.0
0.249878 -0.000656793 0.0
0.240136 -0.000733073 0.0
0.227804 -0.000727761 0.0
0.247482 -0.000738504 0.0
0.239706 -0.000529204 0.0
0.227175 -0.000452787 0.0
0.187089 -0.000334582 0.0
0.209611 -0.000391416 0.0
0.210471 -0.000669306 0.0
0 0 0.0
0.0479575 -2.33319e-05 0.0
0.128415 -0.000289155 0.0
0.0907875 -0.000124146 0.0
0.12697 -0.000232904 0.0
0.15953 -0.000286714 0.0
0 0 0.0
0.0893893 -0.000161206 0.0
0.0469868 -6.03993e-05 0.0
0.18826 -0.000670506 0.0
0.16091 -0.000497859 0.0
0.227834 -0.000833942 0.0
0.247242 -0.00062528 0.0
0.249816 -0.000729765 0.0
0.247447 -0.000815704 0.0
0.240132 -0.000824273 0.0
0.239624 -0.000554882 0.0
0.227103 -0.000463915 0.0
0.187025 -0.000323441 0.0
0.209544 -0.000384152 0.0
0.210556 -0.000797988 0.0
0 0 0.0
0.0480216 -3.30251e-05 0.0
0.0909314 -0.000159658 0.0
0.128621 -0.000369383 0.0
0.126907 -0.000235972 0.0
0.159487 -0.000278849 0.0
0 0 0.0
0.0468796 -6.75456e-05 0.0
0.0893083 -0.000168841 0.0
0.188376 -0.000780947 0.0
0.161116 -0.000625693 0.0
0.227854 -0.000960818 0.0
0.240097 -0.00102011 0.0
0.24715 -0.000673703 0.0
0.249726 -0.000807919 0.0
0.247399 -0.000902137 0.0
0.239515 -0.000570646 0.0
0.227013 -0.000459042 0.0
0.186984 -0.000296878 0.0
0.209466 -0.000353358 0.0
0.210647 -0.000964322 0.0
0 0 0.0
0.0481156 -4.97018e-05 0.0
0.128921 -0.00051902 0.0
0.0911647 -0.000239101 0.0
0.126869 -0.000217739 0.0
0.159452 -0.000242637 0.0
0.04678 -6.88682e-05 0.0
0 0 0.0
0.0892195 -0.000160722 0.0
0.161353 -0.000805469 0.0
0.188587 -0.00102563 0.0
0.227876 -0.00121893 0.0
0.240037 -0.00119612 0.0
0.247302 -0.00103288 0.0
0.246959 -0.000738144 0.0
0.249599 -0.000897184 0.0
0.239373 -0.000572987 0.0
0.226852 -0.000418699 0.0
0.186916 -0.000207102 0.0
0.209369 -0.000290263 0.0
0.210736 -0.00117827 0.0
0 0 0.0
0.0482552 -8.02569e-05 0.0
0.0914514 -0.00034525 0.0
0.161626 -0.00104529 0.0
0.129184 -0.000676409 0.0
0.126842 -0.000160941 0.0
0.159427 -0.000183997 0.0
0.0466842 -6.21401e-05 0.0
0 0 0.0
0.0891619 -0.000135182 0.0
0.210804 -0.00139951 0.0
0.18872 -0.0012216 0.0
0.239962 -0.00136268 0.0
0.227854 -0.00147197 0.0
0.24709 -0.00125211 0.0
0.249424 -0.000993113 0.0
0.246809 -0.000770277 0.0
0.239184 -0.00055936 0.0
0.226715 -0.000369777 0.0
0.186861 -0.000118997 0.0
0.159407 -3.26545e-05 0.0
0.209247 -0.000188792 0.0
0 0 0.0
0.0918072 -0.000482925 0.0
0.0484788 -0.000121785 0.0
0.16187 -0.0012986 0.0
0.129635 -0.00096625 0.0
0.126841 -5.45495e-05 0.0
0 0 0.0
0.046613 -4.75559e-05 0.0
0.0891448 -6.64013e-05 0.0
0.210863 -0.00166242 0.0
0.188957 -0.00163865 0.0
0.239855 -0.00154656 0.0
0.227802 -0.00177359 0.0
0.246911 -0.00139782 0.0
0.249182 -0.00110124 0.0
0.246631 -0.000801449 0.0
0.15939 0.000116402 0.0
0.209113 -6.70728e-05 0.0
0.238932 -0.000528019 0.0
0.226547 -0.0002995 0.0
0.186774 4.88207e-05 0.0
0 0 0.0
0.0487714 -0.0001719 0.0
0.0923061 -0.000675261 0.0
0.162207 -0.0016786 0.0
0.130119 -0.00129121 0.0
0.0892048 3.92954e-05 0.0
0.126887 0.000134642 0.0
0 0 0.0
0.0465894 -1.52754e-05 0.0
0.210901 -0.00204061 0.0
0.189138 -0.00205719 0.0
0.239666 -0.00182057 0.0
0.227696 -0.00212797 0.0
0.246704 -0.00155758 0.0
0.248874 -0.00122119 0.0
0.246179 -0.000847216 0.0
0.159382 0.000369392 0.0
0.238612 -0.000477899 0.0
0.208943 8.82494e-05 0.0
0.226188 -0.00013151 0.0
0.186632 0.000344707 0.0
0 0 0.0
0.0930574 -0.000929035 0.0
0.0492141 -0.00025057 0.0
0.162672 -0.00224468 0.0
0.130726 -0.00168397 0.0
0.089338 0.000172575 0.0
0.126987 0.000359136 0.0
0 0 0.0
0.0466253 1.8388e-05 0.0
0.189315 -0.00255613 0.0
0.210907 -0.00248958 0.0
0.239403 -0.00214261 0.0
0.246353 -0.0017876 0.0
0.227526 -0.00254099 0.0
0.248465 -0.00135423 0.0
0.245744 -0.000881895 0.0
0.238198 -0.000412567 0.0
0.247669 -0.00172624 0.0
0.159368 0.000686381 0.0
0.225816 3.12482e-05 0.0
0.208592 0.000398171 0.0
0.186503 0.000569318 0.0
0 0 0.0
0.0938391 -0.00117343 0.0
0.0498046 -0.000333683 0.0
0.163011 -0.00268278 0.0
0.131463 -0.00213459 0.0
0.0895958 0.000344222 0.0
0.127122 0.000598536 0.0
0 0 0.0
0.0467568 6.49511e-05 0.0
0.189476 -0.00313026 0.0
0.210858 -0.00301041 0.0
0.239043 -0.0025002 0.0
0.22728 -0.00301719 0.0
0.245655 -0.00218128 0.0
0.247322 -0.00118956 0.0
0.242172 -0.000623457 0.0
0.232225 -7.17822e-05 0.0
0.24765 -0.00158435 0.0
0.159372 0.00106917 0.0
0.217472 0.000427803 0.0
0.203224 0.000759636 0.0
0.186253 0.00101826 0.0
0 0 0.0
0.0949068 -0.00147358 0.0
0.0505418 -0.000424226 0.0
0.163503 -0.00329002 0.0
0.132355 -0.00263147 0.0
0.127424 0.000979508 0.0
0.0900002 0.000545629 0.0
0 0 0.0
0.047027 0.000130283 0.0
0.189623 -0.00377587 0.0
0.210755 -0.00359881 0.0
0.245032 -0.00248425 0.0
0.226943 -0.00354691 0.0
0.238591 -0.00291381 0.0
0.244861 -0.000936898 0.0
0.237306 -0.000269471 0.0
0.224992 0.00036545 0.0
0.246941 -0.00176136 0.0
0.159377 0.00149362 0.0
0.207911 0.000924373 0.0
0.185972 0.00142965 0.0
0 0 0.0
0.0514044 -0.00051687 0.0
0.0961817 -0.00178557 0.0
0.133264 -0.00308012 0.0
0.189764 -0.00447792 0.0
0.164057 -0.00394434 0.0
0.127787 0.00134793 0.0
0.0905529 0.000763932 0.0
0.0473756 0.00019937 0.0
0 0 0.0
0.226594 -0.00403092 0.0
0.210585 -0.00425127 0.0
0.244453 -0.00274818 0.0
0.238012 -0.0033728 0.0
0.224336 0.000602435 0.0
0.244121 -0.000972742 0.0
0.236581 -0.000167337 0.0
0.246094 -0.00195932 0.0
0.185652 0.00187858 0.0
0.159432 0.00205067 0.0
0.20721 0.00139023 0.0
0 0 0.0
0.052507 -0.000616585 0.0
0.0978716 -0.00212163 0.0
0.134504 -0.00363164 0.0
0.189862 -0.00505176 0.0
0.164859 -0.00478806 0.0
0.12828 0.00172702 0.0
0.0913623 0.00101675 0.0
0.0478806 0.000270691 0.0
0 0 0.0
0.128928 0.00210709 0.0
0.226173 -0.00453955 0.0
0.210273 -0.00518638 0.0
0.237006 -0.00409437 0.0
0.243792 -0.00302995 0.0
0.223236 0.000949439 0.0
0.235711 -5.78481e-05 0.0
0.243231 -0.00102164 0.0
0.245084 -0.00218581 0.0
0.185275 0.00235405 0.0
0.159508 0.00251669 0.0
0.206527 0.00176756 0.0
0 0 0.0
0.0537694 -0.000703647 0.0
0.0996724 -0.00243559 0.0
0.135936 -0.00417541 0.0
0.190008 -0.00582873 0.0
0.165638 -0.0055061 0.0
0.04847 0.000329545 0.0
0.0922677 0.00122293 0.0
0 0 0.0
0.129559 0.00240882 0.0
0.225564 -0.00521325 0.0
0.209953 -0.00595849 0.0
0.236111 -0.00465853 0.0
0.242797 -0.00343604 0.0
0.222421 0.00115377 0.0
0.23469 4.65883e-05 0.0
0.243914 -0.00243792 0.0
0.241666 -0.00111882 0.0
0.184956 0.00270526 0.0
0.159641 0.00295979 0.0
0.20575 0.00215558 0.0
0 0 0.0
0.0552259 -0.000802183 0.0
0.101701 -0.00273785 0.0
0.137853 -0.0047929 0.0
0.190231 -0.0068458 0.0
0.209585 -0.00677236 0.0
0.166564 -0.00622841 0.0
0.0491795 0.000383841 0.0
0.0933341 0.00140539 0.0
0 0 0.0
0.130449 0.002713 0.0
0.224582 -0.00618728 0.0
0.2353 -0.00514907 0.0
0.24165 -0.00387643 0.0
0.242916 -0.0026549 0.0
0.221521 0.00136561 0.0
0.233489 0.000126949 0.0
0.240358 -0.00121004 0.0
0.159862 0.00337034 0.0
0.184515 0.00315046 0.0
0.204858 0.00252898 0.0
0 0 0.0
0.0568823 -0.000911097 0.0
0.103975 -0.00302177 0.0
0.139779 -0.00530437 0.0
0.190394 -0.00746686 0.0
0.209176 -0.00761192 0.0
0.167647 -0.00694377 0.0
0.049998 0.000419353 0.0
0.0945617 0.00155719 0.0
0 0 0.0
0.160073 0.00365271 0.0
0.0959005 0.0016708 0.0
0.13162 0.00297721 0.0
0.223714 -0.00698067 0.0
0.234392 -0.00565647 0.0
0.239687 -0.00458703 0.0
0.241824 -0.00288431 0.0
0.239233 -0.0013076 0.0
0.22029 0.00160598 0.0
0.231541 0.00022049 0.0
0.183942 0.00365653 0.0
0.20402 0.00282141 0.0
0.22294 -0.00764392 0.0
0 0 0.0
0.0586314 -0.000986447 0.0
0.141956 -0.00577593 0.0
0.106445 -0.00328399 0.0
0.208747 -0.00848663 0.0
0.190772 -0.00850368 0.0
0.168899 -0.00763127 0.0
0.0509585 0.000458595 0.0
0 0 0.0
0.183594 0.00389551 0.0
0.160454 0.00393029 0.0
0.132818 0.00309878 0.0
0.0518036 0.000483468 0.0
0.0973318 0.00170888 0.0
0.233146 -0.00633761 0.0
0.238482 -0.00501027 0.0
0.2402 -0.00323101 0.0
0.238861 -0.00352452 0.0
0.237985 -0.0014145 0.0
0.218899 0.00180259 0.0
0.229909 0.000244828 0.0
0.20313 0.00308761 0.0
0.222097 -0.0083364 0.0
0.0603876 -0.00105859 0.0
0 0 0.0
0.14395 -0.00614496 0.0
0.109097 -0.00350626 0.0
0.208319 -0.00937081 0.0
0.191072 -0.00911842 0.0
0.17036 -0.00829115 0.0
0 0 0.0
0.18318 0.00416043 0.0
0.161029 0.00410241 0.0
0.133875 0.00313632 0.0
0.0527114 0.000463602 0.0
0.098765 0.00168599 0.0
0.231142 -0.00737597 0.0
0.237188 -0.00545173 0.0
0.237413 -0.00383385 0.0
0.235365 -0.00167477 0.0
0.217385 0.00196695 0.0
0.228133 0.000231229 0.0
0.201679 0.00339654 0.0
0.221025 -0.00921242 0.0
0 0 0.0
0.0624108 -0.00110845 0.0
0.146512 -0.00653644 0.0
0.111652 -0.00368539 0.0
0.172014 -0.00889586 0.0
0.207917 -0.0102731 0.0
0.191738 -0.0101095 0.0
0 0 0.0
0 0 0.0
0.182812 0.00428232 0.0
0.161683 0.00408595 0.0
0.135227 0.00305235 0.0
0.100199 0.00158654 0.0
0.0535971 0.000421763 0.0
0.229559 -0.00816776 0.0
0.235351 -0.0060751 0.0
0.226574 0.000184343 0.0
0.235324 -0.00429561 0.0
0.233307 -0.00192854 0.0
0.215741 0.00205638 0.0
0.200516 0.00352729 0.0
0.228193 -0.00883902 0.0
0.219886 -0.0101118 0.0
0.0645633 -0.00116971 0.0
0.11462 -0.00385878 0.0
0.149293 -0.00689881 0.0
0.173541 -0.00935828 0.0
0.207579 -0.0111598 0.0
0.192258 -0.0107027 0.0
0 0 0.0
0 0 0.0
0.162234 0.00396591 0.0
0.182476 0.00423766 0.0
0.101404 0.00143739 0.0
0.136784 0.00280025 0.0
0.0543688 0.000368881 0.0
0.232403 -0.00704484 0.0
0.233035 -0.00482103 0.0
0.199367 0.00352599 0.0
0.224923 9.97687e-05 0.0
0.2316 -0.0021678 0.0
0.213372 0.00204489 0.0
0.226775 -0.0095098 0.0
0.218328 -0.0113455 0.0
0.207309 -0.0120363 0.0
0.0668317 -0.00125878 0.0
0.117736 -0.00402844 0.0
0.152705 -0.00727694 0.0
0.175586 -0.00988236 0.0
0.193337 -0.0116249 0.0
0 0 0.0
0 0 0.0
0.163201 0.00356886 0.0
0.182349 0.0039737 0.0
0.102761 0.00116266 0.0
0.138128 0.00243353 0.0
0.0550983 0.000303055 0.0
0.229775 -0.00244375 0.0
0.230579 -0.00540006 0.0
0.23017 -0.00779364 0.0
0.198262 0.00337258 0.0
0.222741 -9.8432e-05 0.0
0.211538 0.00188245 0.0
0.182338 0.00349808 0.0
0.224143 -0.0107343 0.0
0 0 0.0
0.217145 -0.012283 0.0
0.194431 -0.0123286 0.0
0.207139 -0.01289 0.0
0.0690216 -0.00131479 0.0
0.155446 -0.00754688 0.0
0.121299 -0.00425069 0.0
0.178346 -0.0105068 0.0
0 0 0.0
0 0 0.0
0 0 0.0
0 0 0.0
0 0 0.0
0.0556055 0.000217828 0.0
0.139396 0.00192313 0.0
0.164099 0.00301502 0.0
0.103698 0.000891133 0.0
0.227278 -0.00285997 0.0
0.227967 -0.00605773 0.0
0.227802 -0.00859456 0.0
0.210008 0.00164061 0.0
0.197216 0.00300926 0.0
0.219472 -0.00055286 0.0
0.196421 0.00252355 0.0
0.182383 0.00300402 0.0
0.22218 -0.0116557 0.0
0.215991 -0.0131946 0.0
0 0 0.0
1.59201e-05 1.91451e-05 0.0
0 0 0.0
-0.000642617 0.0054747 0.0
0.207101 -0.0137257 0.0
0.195369 -0.0128409 0.0
0.0715551 -0.00140761 0.0
0.158721 -0.00789165 0.0
0.12467 -0.00450174 0.0
0.180884 -0.011044 0.0
0 0 0.0
0 0 0.0
0 0 0.0
-0.000544879 0.00360536 0.0
-0.000208404 0.00034077 0.0
-0.000406323 0.000389484 0.0
0 0 0.0
0.0559143 0.000107299 0.0
0.140319 0.00141969 0.0
0.164967 0.00228616 0.0
0.104519 0.000513459 0.0
0.224657 -0.00339579 0.0
0.225223 -0.0067942 0.0
0.225323 -0.00943117 0.0
0.208515 0.00127014 0.0
0.217562 -0.000956986 0.0
0.195689 0.00188035 0.0
0.182535 0.00189756 0.0
0.220195 -0.0125784 0.0
0.216564 -0.0137413 0.0
0.2114 -0.0143478 0.0
0 0 0.0
-0.000321237 0.000189558 0.0
0 0 0.0
0 0 0.0
-0.00214438 0.0108244 0.0
-0.00236621 0.00803463 0.0
0.204796 -0.014346 0.0
0.196731 -0.0135545 0.0
0.127814 -0.00479449 0.0
0.0740223 -0.00154701 0.0
0.162136 -0.00833231 0.0
0.183507 -0.0116366 0.0
0 0 0.0
-0.00124702 0.00258327 0.0
-0.00187269 0.00502524 0.0
-0.0011582 0.00148925 0.0
-0.00153708 0.00110063 0.0
0 0 0.0
0.0560541 -1.94697e-06 0.0
0.141199 0.000737064 0.0
0.165755 0.00140572 0.0
0.104976 0.000127412 0.0
0.221919 -0.00404056 0.0
0.222406 -0.00761892 0.0
0.222771 -0.0103175 0.0
0.206108 0.000332804 0.0
0.215617 -0.0014581 0.0
0.194941 0.000881388 0.0
0.166453 0.000374763 0.0
0.182748 0.000772509 0.0
0.218613 -0.0133172 0.0
0.2142 -0.0147137 0.0
0.207268 -0.0151837 0.0
0 0 0.0
-0.00144562 0.000464035 0.0
0 0 0.0
0 0 0.0
0 0 0.0
0 0 0.0
-0.00462562 0.0083484 0.0
-0.000498288 0.00856521 0.0
-0.00200625 0.0130497 0.0
-0.00487473 0.0164988 0.0
-0.00456791 0.0123634 0.0
0 0 0.0
6.43938e-05 0.0102551 0.0
0.198576 -0.0145529 0.0
0.185722 -0.0122175 0.0
0 0 0.0
0.077014 -0.00178265 0.0
0.131505 -0.0052299 0.0
0.166223 -0.00911735 0.0
0 0 0.0
0 0 0.0
-0.00336823 0.00486166 0.0
-0.00321092 0.00300345 0.0
-0.00359744 0.00185548 0.0
0 0 0.0
0.0559522 -0.000121914 0.0
0.141851 -0.000120666 0.0
0.105068 -0.000268396 0.0
0.166783 -0.000477096 0.0
0.219152 -0.00482853 0.0
0.220271 -0.00829667 0.0
0.220186 -0.0112649 0.0