# vtk DataFile Version 3.0
Mesh NS-CD Problem
ASCII
DATASET UNSTRUCTURED_GRID
POINTS 10839 float
-2 0.3 0.0
-2 0.4 0.0
-2 0.35 0.0
-2 0.45 0.0
-2 0.5 0.0
-2 0.55 0.0
-2 0 0.0
-2 0.05 0.0
-2 0.85 0.0
-2 0.9 0.0
-2 0.1 0.0
-2 0.15 0.0
-2 0.25 0.0
-2 0.2 0.0
-1.96653 0.266667 0.0
-1.96524 0.415385 0.0
-1.96485 0.315 0.0
-1.96348 0.363636 0.0
-1.96414 0.464286 0.0
-2 0.6 0.0
-1.96538 0.584615 0.0
-1.96538 0.538462 0.0
-1.94979 0 0.0
-1.96653 0.0666666 0.0
-1.93306 0.0333333 0.0
-2 0.8 0.0
-2 0.75 0.0
-2 0.7 0.0
-2 0.65 0.0
-1.96249 0.7375 0.0
-1.96666 0.833333 0.0
-2 1 0.0
-2 0.95 0.0
-1.96249 0.8875 0.0
-1.96666 0.933333 0.0
-1.96234 0.1125 0.0
-1.96653 0.166667 0.0
-1.93724 0.225 0.0
-1.92971 0.28 0.0
-1.93048 0.380769 0.0
-1.93048 0.423077 0.0
-1.89958 0.3375 0.0
-1.9292 0.484203 0.0
-1.92117 0.530907 0.0
-1.96363 0.636364 0.0
-1.93076 0.576923 0.0
-1.89958 0 0.0
-1.88703 0.0375 0.0
-1.90963 0.08 0.0
-1.86611 0.0666666 0.0
-1.93749 0.775 0.0
-1.93635 0.672727 0.0
-1.92999 0.72 0.0
-1.93332 0.866667 0.0
-1.92856 0.821429 0.0
-1.94999 1 0.0
-1.92499 0.9625 0.0
-1.92499 0.925 0.0
-1.89998 0.9 0.0
-1.89958 0.125 0.0
-1.92827 0.178571 0.0
-1.89958 0.233333 0.0
-1.89045 0.290909 0.0
-1.86096 0.311538 0.0
-1.89241 0.392857 0.0
-1.89334 0.448489 0.0
-1.85655 0.357143 0.0
-1.89614 0.653846 0.0
-1.89427 0.504121 0.0
-1.8952 0.559753 0.0
-1.89614 0.615385 0.0
-1.84937 0 0.0
-1.83264 0.0333333 0.0
-1.85655 0.107143 0.0
-1.81172 0.075 0.0
-1.89998 0.766667 0.0
-1.89089 0.709091 0.0
-1.87498 0.85 0.0
-1.85998 0.79 0.0
-1.88748 0.8125 0.0
-1.89998 1 0.0
-1.88748 0.9625 0.0
-1.86664 0.933333 0.0
-1.85712 0.892857 0.0
-1.87448 0.15 0.0
-1.86611 0.194444 0.0
-1.83264 0.133333 0.0
-1.83264 0.2625 0.0
-1.82068 0.321429 0.0
-1.85664 0.404762 0.0
-1.85674 0.452381 0.0
-1.85683 0.5 0.0
-1.81184 0.375 0.0
-1.85712 0.642857 0.0
-1.85693 0.547619 0.0
-1.85702 0.595238 0.0
-1.79917 0 0.0
-1.78482 0.0357143 0.0
-1.79917 0.116667 0.0
-1.76569 0.0666666 0.0
-1.85452 0.745455 0.0
-1.82689 0.692308 0.0
-1.81815 0.781818 0.0
-1.82497 0.825 0.0
-1.84997 1 0.0
-1.8333 0.958333 0.0
-1.81247 0.8875 0.0
-1.81247 0.925 0.0
-1.81742 0.218182 0.0
-1.82427 0.175 0.0
-1.77634 0.145455 0.0
-1.79144 0.242308 0.0
-1.78482 0.285714 0.0
-1.77469 0.332653 0.0
-1.81215 0.529762 0.0
-1.81194 0.422619 0.0
-1.81203 0.470238 0.0
-1.76714 0.392857 0.0
-1.81234 0.625 0.0
-1.79732 0.571429 0.0
-1.74896 0 0.0
-1.73222 0.0333333 0.0
-1.75398 0.105 0.0
-1.71883 0.07 0.0
-1.79227 0.730769 0.0
-1.78007 0.679121 0.0
-1.75765 0.769231 0.0
-1.78178 0.818182 0.0
-1.78996 0.86 0.0
-1.79996 1 0.0
-1.78568 0.964286 0.0
-1.76663 0.922222 0.0
-1.76569 0.1875 0.0
-1.73222 0.15 0.0
-1.74896 0.25 0.0
-1.73714 0.304762 0.0
-1.76743 0.537202 0.0
-1.72869 0.343878 0.0
-1.76732 0.485119 0.0
-1.76723 0.440476 0.0
-1.72243 0.410714 0.0
-1.76757 0.607143 0.0
-1.69875 0 0.0
-1.68369 0.035 0.0
-1.69875 0.1125 0.0
-1.66528 0.075 0.0
-1.74341 0.708974 0.0
-1.73324 0.665934 0.0
-1.70441 0.74478 0.0
-1.71423 0.785714 0.0
-1.72303 0.826923 0.0
-1.74541 0.854545 0.0
-1.74541 0.890909 0.0
-1.74996 1 0.0
-1.73745 0.9625 0.0
-1.71359 0.927273 0.0
-1.68716 0.153846 0.0
-1.7131 0.214286 0.0
-1.70725 0.275 0.0
-1.69712 0.321939 0.0
-1.72279 0.589286 0.0
-1.72261 0.5 0.0
-1.7227 0.544643 0.0
-1.6827 0.355102 0.0
-1.67773 0.428571 0.0
-1.70763 0.464286 0.0
-1.70369 0.62449 0.0
-1.64854 0 0.0
-1.63181 0.0375 0.0
-1.64137 0.142857 0.0
-1.61764 0.0769231 0.0
-1.69458 0.703846 0.0
-1.67471 0.657437 0.0
-1.66143 0.727637 0.0
-1.67125 0.768571 0.0
-1.67851 0.821429 0.0
-1.68841 0.861538 0.0
-1.70904 0.890909 0.0
-1.69995 1 0.0
-1.68176 0.963636 0.0
-1.67267 0.927273 0.0
-1.65427 0.187143 0.0
-1.66718 0.231429 0.0
-1.66554 0.3 0.0
-1.67802 0.571429 0.0
-1.67792 0.523809 0.0
-1.6367 0.366327 0.0
-1.63682 0.423469 0.0
-1.62568 0.502976 0.0
-1.6629 0.470238 0.0
-1.65254 0.618367 0.0
-1.6059 0.307143 0.0
-1.59833 0 0.0
-1.58288 0.0384615 0.0
-1.60563 0.169643 0.0
-1.58179 0.112271 0.0
-1.56964 0.0714286 0.0
-1.64574 0.690385 0.0
-1.62827 0.751429 0.0
-1.63371 0.791071 0.0
-1.64279 0.857143 0.0
-1.65378 0.896154 0.0
-1.64994 1 0.0
-1.6363 0.963636 0.0
-1.61916 0.930769 0.0
-1.61345 0.209107 0.0
-1.62126 0.248571 0.0
-1.56989 0.196429 0.0
-1.63324 0.553571 0.0
-1.58846 0.535714 0.0
-1.59408 0.361905 0.0
-1.59161 0.402211 0.0
-1.58832 0.464286 0.0
-1.61504 0.598581 0.0
-1.59683 0.64359 0.0
-1.57899 0.274107 0.0
-1.56176 0.322381 0.0
-1.54812 0 0.0
-1.53378 0.0357143 0.0
-1.54593 0.147619 0.0
-1.53385 0.0732143 0.0
-1.53393 0.110714 0.0
-1.58522 0.704286 0.0
-1.58709 0.745 0.0
-1.58896 0.785714 0.0
-1.60695 0.830357 0.0
-1.60707 0.892857 0.0
-1.59993 1 0.0
-1.58454 0.965385 0.0
-1.57135 0.928571 0.0
-1.55209 0.241071 0.0
-1.5291 0.198214 0.0
-1.56936 0.570918 0.0
-1.54369 0.517857 0.0
-1.5464 0.380952 0.0
-1.54564 0.427721 0.0
-1.54488 0.47449 0.0
-1.55026 0.606122 0.0
-1.54222 0.677143 0.0
-1.52943 0.282857 0.0
-1.52143 0.33619 0.0
-1.49792 0 0.0
-1.49802 0.05 0.0
-1.49822 0.15 0.0
-1.49312 0.1 0.0
-1.5423 0.717143 0.0
-1.54419 0.767857 0.0
-1.54727 0.819048 0.0
-1.57122 0.861905 0.0
-1.53553 0.914286 0.0
-1.54992 1 0.0
-1.53563 0.964286 0.0
-1.49842 0.25 0.0
-1.48831 0.2 0.0
-1.5214 0.558929 0.0
-1.49891 0.5 0.0
-1.49871 0.4 0.0
-1.47631 0.45 0.0
-1.49911 0.6 0.0
-1.49921 0.65 0.0
-1.49931 0.7 0.0
-1.48111 0.35 0.0
-1.48351 0.3 0.0
-1.44771 0 0.0
-1.44782 0.05 0.0
-1.44804 0.15 0.0
-1.44793 0.1 0.0
-1.49941 0.75 0.0
-1.49951 0.8 0.0
-1.49981 0.95 0.0
-1.49961 0.85 0.0
-1.49971 0.9 0.0
-1.49991 1 0.0
-1.44826 0.25 0.0
-1.43815 0.2 0.0
-1.47151 0.55 0.0
-1.44881 0.5 0.0
-1.44859 0.4 0.0
-1.42619 0.45 0.0
-1.44913 0.65 0.0
-1.44902 0.6 0.0
-1.44935 0.75 0.0
-1.44924 0.7 0.0
-1.43972 0.35 0.0
-1.43336 0.3 0.0
-1.3975 0 0.0
-1.39762 0.05 0.0
-1.39786 0.15 0.0
-1.39274 0.1 0.0
-1.44957 0.85 0.0
-1.44946 0.8 0.0
-1.4523 0.95 0.0
-1.44968 0.9 0.0
-1.4499 1 0.0
-1.3981 0.25 0.0
-1.38798 0.2 0.0
-1.42141 0.55 0.0
-1.3987 0.5 0.0
-1.39834 0.35 0.0
-1.37845 0.4 0.0
-1.37607 0.45 0.0
-1.40784 0.65 0.0
-1.39894 0.6 0.0
-1.41185 0.75 0.0
-1.39918 0.7 0.0
-1.38322 0.3 0.0
-1.34729 0 0.0
-1.34492 0.05 0.0
-1.34018 0.15 0.0
-1.34255 0.1 0.0
-1.40707 0.85 0.0
-1.39941 0.8 0.0
-1.39977 0.95 0.0
-1.39965 0.9 0.0
-1.39989 1 0.0
-1.33781 0.2 0.0
-1.33544 0.25 0.0
-1.37131 0.55 0.0
-1.34859 0.5 0.0
-1.33833 0.4 0.0
-1.3307 0.35 0.0
-1.32595 0.45 0.0
-1.34885 0.6 0.0
-1.36655 0.65 0.0
-1.36179 0.75 0.0
-1.34911 0.7 0.0
-1.33307 0.3 0.0
-1.29708 0 0.0
-1.29722 0.05 0.0
-1.2975 0.15 0.0
-1.29236 0.1 0.0
-1.35703 0.85 0.0
-1.34937 0.8 0.0
-1.34988 1 0.0
-1.34962 0.9 0.0
-1.35226 0.95 0.0
-1.28528 0.25 0.0
-1.28764 0.2 0.0
-1.28931 0.35 0.0
-1.32121 0.55 0.0
-1.29848 0.5 0.0
-1.28709 0.45 0.0
-1.2982 0.4 0.0
-1.29876 0.6 0.0
-1.31647 0.65 0.0
-1.29918 0.75 0.0
-1.29904 0.7 0.0
-1.28292 0.3 0.0
-1.24687 0 0.0
-1.24702 0.05 0.0
-1.24717 0.1 0.0
-1.24732 0.15 0.0
-1.29946 0.85 0.0
-1.29932 0.8 0.0
-1.29987 1 0.0
-1.29974 0.95 0.0
-1.30462 0.9 0.0
-1.24762 0.25 0.0
-1.23747 0.2 0.0
-1.24792 0.35 0.0
-1.22807 0.4 0.0
-1.27111 0.55 0.0
-1.24837 0.5 0.0
-1.24822 0.45 0.0
-1.24867 0.6 0.0
-1.26639 0.65 0.0
-1.26167 0.75 0.0
-1.24897 0.7 0.0
-1.23277 0.3 0.0
-1.19667 0 0.0
-1.19683 0.05 0.0
-1.18964 0.15 0.0
-1.19198 0.1 0.0
-1.25695 0.85 0.0
-1.24927 0.8 0.0
-1.25223 0.95 0.0
-1.24987 1 0.0
-1.24957 0.9 0.0
-1.1873 0.2 0.0
-1.18496 0.25 0.0
-1.18028 0.35 0.0
-1.17794 0.4 0.0
-1.1981 0.45 0.0
-1.19842 0.55 0.0
-1.19826 0.5 0.0
-1.19858 0.6 0.0
-1.19874 0.65 0.0
-1.19906 0.75 0.0
-1.1989 0.7 0.0
-1.18262 0.3 0.0
-1.14646 0 0.0
-1.14663 0.05 0.0
-1.1418 0.1 0.0
-1.13713 0.2 0.0
-1.14697 0.15 0.0
-1.20691 0.85 0.0
-1.20926 0.8 0.0
-1.20221 0.95 0.0
-1.19986 1 0.0
-1.20456 0.9 0.0
-1.13997 0.3 0.0
-1.14731 0.25 0.0
-1.13781 0.4 0.0
-1.13014 0.35 0.0
-1.12548 0.45 0.0
-1.14815 0.5 0.0
-1.15962 0.55 0.0
-1.14849 0.6 0.0
-1.15745 0.65 0.0
-1.16155 0.75 0.0
-1.14917 0.8 0.0
-1.14883 0.7 0.0
-1.09625 0 0.0
-1.09661 0.1 0.0
-1.09393 0.05 0.0
-1.09697 0.2 0.0
-1.08929 0.15 0.0
-1.15687 0.85 0.0
-1.14985 1 0.0
-1.15219 0.95 0.0
-1.14951 0.9 0.0
-1.09733 0.3 0.0
-1.08465 0.25 0.0
-1.09769 0.4 0.0
-1.08 0.35 0.0
-1.08661 0.45 0.0
-1.09804 0.5 0.0
-1.12082 0.55 0.0
-1.10916 0.8 0.0
-1.10629 0.7 0.0
-1.0984 0.6 0.0
-1.11616 0.65 0.0
-1.11149 0.75 0.0
-1.04604 0 0.0
-1.04623 0.05 0.0
-1.04642 0.1 0.0
-1.0468 0.2 0.0
-1.03911 0.15 0.0
-1.09948 0.9 0.0
-1.0993 0.85 0.0
-1.09984 1 0.0
-1.09966 0.95 0.0
-1.04718 0.3 0.0
-1.03449 0.25 0.0
-1.04756 0.4 0.0
-1.02986 0.35 0.0
-1.04775 0.45 0.0
-1.04794 0.5 0.0
-1.04813 0.55 0.0
-1.05911 0.8 0.0
-1.04831 0.6 0.0
-1.06376 0.7 0.0
-1.0485 0.65 0.0
-1.04888 0.75 0.0
-0.995833 0 0.0
-0.991231 0.1 0.0
-0.996033 0.05 0.0
-0.986629 0.2 0.0
-0.98893 0.15 0.0
-1.05447 0.9 0.0
-1.04926 0.85 0.0
-1.04983 1 0.0
-1.04964 0.95 0.0
-0.984328 0.25 0.0
-0.99703 0.3 0.0
-0.997429 0.4 0.0
-0.997628 0.45 0.0
-0.979726 0.35 0.0
-0.997827 0.5 0.0
-0.998027 0.55 0.0
-0.998226 0.6 0.0
-0.961416 0.475 0.0
-1.00907 0.8 0.0
-0.998426 0.65 0.0
-0.998625 0.7 0.0
-1.01138 0.75 0.0
-0.945625 0 0.0
-0.946044 0.1 0.0
-0.943334 0.05 0.0
-0.946463 0.2 0.0
-0.938752 0.15 0.0
-1.00444 0.9 0.0
-1.00675 0.85 0.0
-0.999821 1 0.0
-1.00213 0.95 0.0
-0.93417 0.25 0.0
-0.946881 0.3 0.0
-0.9473 0.4 0.0
-0.929588 0.35 0.0
-0.925005 0.45 0.0
-0.960371 0.525 0.0
-0.959325 0.575 0.0
-0.958279 0.625 0.0
-0.922714 0.5 0.0
-0.959017 0.8 0.0
-0.957233 0.675 0.0
-0.952999 0.7125 0.0
-0.948766 0.75 0.0
-0.895417 0 0.0
-0.895855 0.1 0.0
-0.893136 0.05 0.0
-0.896294 0.2 0.0
-0.888573 0.15 0.0
-0.949184 0.85 0.0
-0.954415 0.9 0.0
-0.949812 1 0.0
-0.949603 0.95 0.0
-0.884011 0.25 0.0
-0.896733 0.3 0.0
-0.874887 0.45 0.0
-0.879449 0.35 0.0
-0.897171 0.4 0.0
-0.920423 0.55 0.0
-0.918132 0.6 0.0
-0.915841 0.65 0.0
-0.872606 0.5 0.0
-0.908968 0.8 0.0
-0.91355 0.7 0.0
-0.898707 0.75 0.0
-0.845208 0 0.0
-0.845438 0.05 0.0
-0.845667 0.1 0.0
-0.845896 0.15 0.0
-0.833853 0.25 0.0
-0.846126 0.2 0.0
-0.899146 0.85 0.0
-0.904386 0.9 0.0
-0.899584 0.95 0.0
-0.899804 1 0.0
-0.838062 0.35 0.0
[...]
POINT_DATA 10839
VECTORS Velocity float
0.21 0 0.0
0.24 0 0.0
0.2275 0 0.0
0.2475 0 0.0
0.25 0 0.0
0.2475 0 0.0
0 0 0.0
0.0475 0 0.0
0.1275 0 0.0
0.09 0 0.0
0.09 0 0.0
0.1275 0 0.0
0.1875 0 0.0
0.16 0 0.0
0.195557 -2.44008e-05 0.0
0.242841 -3.32495e-05 0.0
0.215776 -2.90282e-05 0.0
0.231406 -3.27124e-05 0.0
0.248725 -3.53962e-05 0.0
0.24 0 0.0
0.24284 -3.31752e-05 0.0
0.24852 -3.40888e-05 0.0
0 0 0.0
0.062224 -4.27609e-06 0.0
0.0322271 -2.82744e-06 0.0
0.16 0 0.0
0.1875 0 0.0
0.21 0 0.0
0.2275 0 0.0
0.193592 -2.73891e-05 0.0
0.138887 -1.52352e-05 0.0
0 0 0.0
0.0475 0 0.0
0.0998414 -1.05983e-05 0.0
0.0622205 -4.32431e-06 0.0
0.0998462 -1.10725e-05 0.0
0.138891 -1.53691e-05 0.0
0.17438 -3.84599e-05 0.0
0.201606 -5.26423e-05 0.0
0.235787 -6.42297e-05 0.0
0.244085 -6.71974e-05 0.0
0.223602 -8.60826e-05 0.0
0.249751 -7.01994e-05 0.0
0.249044 -7.82146e-05 0.0
0.231404 -3.32421e-05 0.0
0.244081 -6.6404e-05 0.0
0 0 0.0
0.0361084 -5.4622e-06 0.0
0.0736129 -1.52515e-05 0.0
0.0622496 -1.67079e-05 0.0
0.17437 -3.78981e-05 0.0
0.220162 -5.26109e-05 0.0
0.201594 -5.27219e-05 0.0
0.115548 -2.27634e-05 0.0
0.146676 -3.5231e-05 0.0
0 0 0.0
0.0360873 -3.68337e-06 0.0
0.0693659 -1.19327e-05 0.0
0.0899832 -2.36502e-05 0.0
0.109391 -3.19666e-05 0.0
0.146692 -3.45463e-05 0.0
0.178902 -6.44477e-05 0.0
0.206293 -8.4215e-05 0.0
0.214501 -0.000113428 0.0
0.238527 -0.000100627 0.0
0.24735 -0.000104772 0.0
0.229607 -0.000128041 0.0
0.226323 -9.04445e-05 0.0
0.249983 -0.000105288 0.0
0.246426 -0.00010244 0.0
0.23668 -9.64653e-05 0.0
0 0 0.0
0.0322511 -6.17259e-06 0.0
0.0956971 -3.62943e-05 0.0
0.0694301 -2.73576e-05 0.0
0.178876 -6.34716e-05 0.0
0.206269 -8.48538e-05 0.0
0.127476 -4.89744e-05 0.0
0.165873 -8.03009e-05 0.0
0.152325 -5.75448e-05 0.0
0 0 0.0
0.0360793 -5.29097e-06 0.0
0.0621953 -1.65337e-05 0.0
0.0956295 -3.69883e-05 0.0
0.127525 -4.94418e-05 0.0
0.156661 -7.17718e-05 0.0
0.115601 -5.67486e-05 0.0
0.193627 -0.000118244 0.0
0.218142 -0.000149563 0.0
0.24094 -0.000136408 0.0
0.247737 -0.000141455 0.0
0.25 -0.000142996 0.0
0.234398 -0.000173094 0.0
0.229576 -0.000126277 0.0
0.247727 -0.000141145 0.0
0.240919 -0.00013617 0.0
0 0 0.0
0.034488 -8.54502e-06 0.0
0.103122 -5.57511e-05 0.0
0.0623042 -2.77122e-05 0.0
0.189727 -0.00010053 0.0
0.212988 -0.000140327 0.0
0.170533 -0.000108853 0.0
0.144329 -8.08314e-05 0.0
0 0 0.0
0.0398975 -9.10254e-06 0.0
0.0997855 -5.07039e-05 0.0
0.0693204 -2.69162e-05 0.0
0.170625 -0.000108967 0.0
0.144422 -8.25741e-05 0.0
0.124378 -8.37181e-05 0.0
0.18365 -0.000137686 0.0
0.204132 -0.000164794 0.0
0.222039 -0.000193975 0.0
0.249109 -0.000187656 0.0
0.244027 -0.000182662 0.0
0.24912 -0.000187663 0.0
0.238551 -0.000220269 0.0
0.234353 -0.000172081 0.0
0.244882 -0.000197799 0.0
0 0 0.0
0.0322929 -9.04957e-06 0.0
0.0940754 -5.85994e-05 0.0
0.0652189 -3.50487e-05 0.0
0.196696 -0.000150546 0.0
0.217871 -0.000184892 0.0
0.177437 -0.000152785 0.0
0.148689 -0.000106684 0.0
0.120328 -7.47336e-05 0.0
0 0 0.0
0.03439 -8.63259e-06 0.0
0.0716431 -3.51796e-05 0.0
0.152425 -0.000119611 0.0
0.127616 -0.000103918 0.0
0.187579 -0.000170675 0.0
0.211952 -0.000212522 0.0
0.248605 -0.000232856 0.0
0.225686 -0.000240735 0.0
0.249783 -0.000234542 0.0
0.246474 -0.000230597 0.0
0.242065 -0.000269759 0.0
0.23849 -0.000219655 0.0
0 0 0.0
0.0338756 -1.13415e-05 0.0
0.0999947 -7.82349e-05 0.0
0.0695471 -4.66603e-05 0.0
0.20626 -0.000199001 0.0
0.222404 -0.000231916 0.0
0.189974 -0.00020675 0.0
0.168252 -0.000167041 0.0
0.143002 -0.000128196 0.0
0.124193 -9.46521e-05 0.0
0.0970827 -6.36196e-05 0.0
0 0 0.0
0.0360198 -1.09929e-05 0.0
0.0673133 -3.77012e-05 0.0
0.130336 -0.000125542 0.0
0.168483 -0.000167824 0.0
0.199473 -0.000218864 0.0
0.218379 -0.000256793 0.0
0.241992 -0.000270418 0.0
0.25 -0.000282259 0.0
0.247989 -0.000278973 0.0
0.229082 -0.000289699 0.0
0.244938 -0.000321109 0.0
0.248741 -0.000296156 0.0
0.234445 -0.000277035 0.0
0 0 0.0
0.0362344 -1.46214e-05 0.0
0.122661 -0.000128593 0.0
0.0712317 -5.51867e-05 0.0
0.208349 -0.000243285 0.0
0.225125 -0.000289445 0.0
0.198047 -0.00025254 0.0
0.177724 -0.000209197 0.0
0.146524 -0.000154351 0.0
0.11913 -0.000107909 0.0
0.0970495 -7.21599e-05 0.0
0 0 0.0
0.0349373 -1.231e-05 0.0
0.0672757 -4.24479e-05 0.0
0.152303 -0.000175389 0.0
0.178019 -0.000214119 0.0
0.210117 -0.000270792 0.0
0.244858 -0.000321014 0.0
0.24942 -0.000329771 0.0
0.232226 -0.000340649 0.0
0.244198 -0.000365214 0.0
0.249988 -0.000389741 0.0
0.249132 -0.00034646 0.0
0.235912 -0.000331632 0.0
0.212964 -0.000330505 0.0
0 0 0.0
0.0371637 -1.72249e-05 0.0
0.141113 -0.00017891 0.0
0.0999605 -0.000108279 0.0
0.0666028 -5.37899e-05 0.0
0.213628 -0.000295866 0.0
0.186605 -0.00025761 0.0
0.165082 -0.000209714 0.0
0.122238 -0.000129365 0.0
0.0928637 -7.91428e-05 0.0
0 0 0.0
0.0349072 -1.37467e-05 0.0
0.0642239 -4.50861e-05 0.0
0.165599 -0.000224117 0.0
0.186969 -0.000263349 0.0
0.158126 -0.000234434 0.0
0.247091 -0.000375011 0.0
0.248691 -0.000430848 0.0
0.231053 -0.000382397 0.0
0.240527 -0.000408058 0.0
0.248758 -0.000430499 0.0
0.240202 -0.000381394 0.0
0.229255 -0.000374672 0.0
0.199184 -0.000323523 0.0
0.218636 -0.000386538 0.0
0 0 0.0
0.0346517 -1.69033e-05 0.0
0.126173 -0.000173866 0.0
0.0681818 -6.0775e-05 0.0
0.0988232 -0.000117901 0.0
0.208081 -0.000338218 0.0
0.189757 -0.000294976 0.0
0.168123 -0.000244936 0.0
0.140617 -0.000177604 0.0
0.095406 -9.41251e-05 0.0
0 0 0.0
0.0332508 -1.40713e-05 0.0
0.0660526 -5.36812e-05 0.0
0.183226 -0.00030566 0.0
0.159266 -0.000262285 0.0
0.244898 -0.000444121 0.0
0.24966 -0.000487379 0.0
0.235962 -0.000447243 0.0
0.244859 -0.000472678 0.0
0.249378 -0.000486255 0.0
0.238619 -0.000449609 0.0
0.218418 -0.000406412 0.0
0.203106 -0.000377259 0.0
0.223372 -0.000441767 0.0
0 0 0.0
0.0478096 -3.37154e-05 0.0
0.127925 -0.000198171 0.0
0.0904282 -0.00011074 0.0
0.202606 -0.000363411 0.0
0.177964 -0.000299043 0.0
0.147884 -0.000224637 0.0
0.118716 -0.000147484 0.0
0.0780231 -7.90779e-05 0.0
0 0 0.0
0.0342285 -1.65804e-05 0.0
0.187835 -0.000361715 0.0
0.160404 -0.000291759 0.0
0.246451 -0.000507216 0.0
0.25 -0.00054639 0.0
0.240141 -0.00051607 0.0
0.247577 -0.000568729 0.0
0.239858 -0.000515512 0.0
0.22729 -0.000477344 0.0
0.209727 -0.000424793 0.0
0.227726 -0.000501153 0.0
0.210292 -0.000442726 0.0
0 0 0.0
0.0478737 -3.76201e-05 0.0
0.12802 -0.000221173 0.0
0.090511 -0.000121757 0.0
0.187167 -0.000359756 0.0
0.159615 -0.000282232 0.0
0.0471942 -3.30947e-05 0.0
0.127079 -0.000195526 0.0
0.0895846 -0.000108514 0.0
0 0 0.0
0.187911 -0.00040634 0.0
0.160495 -0.000326465 0.0
0.247419 -0.000575076 0.0
0.249999 -0.000615305 0.0
0.240173 -0.000581586 0.0
0.247595 -0.000639132 0.0
0.227243 -0.000537131 0.0
0.239826 -0.000580162 0.0
0.187091 -0.000403934 0.0
0.209664 -0.000477669 0.0
0.227766 -0.000549974 0.0
0.210358 -0.000497514 0.0
0 0 0.0
0.0479442 -4.12335e-05 0.0
0.128127 -0.000245884 0.0
0.0906231 -0.000136534 0.0
0.126984 -0.000219079 0.0
0.159527 -0.000316556 0.0
0.0471342 -3.67071e-05 0.0
0.0894941 -0.000120605 0.0
0 0 0.0
0.187998 -0.000453706 0.0
0.160597 -0.000363891 0.0
0.247402 -0.00064513 0.0
0.249998 -0.000689077 0.0
0.227811 -0.000603187 0.0
0.240225 -0.000679947 0.0
0.247613 -0.000715177 0.0
0.227198 -0.000587768 0.0
0.239789 -0.000649582 0.0
0.187027 -0.000437907 0.0
0.209592 -0.000534141 0.0
0.210431 -0.000556109 0.0
0 0 0.0
0.0480271 -4.58388e-05 0.0
0.128265 -0.000276549 0.0
0.0907375 -0.000150782 0.0
0.126895 -0.000239277 0.0
0.159428 -0.000352415 0.0
0.0470614 -4.07903e-05 0.0
0.089394 -0.000133167 0.0
0 0 0.0
0.160711 -0.000403682 0.0
0.188121 -0.000517274 0.0
0.247381 -0.000720264 0.0
0.249998 -0.000768352 0.0
0.240259 -0.000742577 0.0
0.227895 -0.0006977 0.0
0.247634 -0.000795921 0.0
0.239747 -0.000723552 0.0
0.227149 -0.000643099 0.0
0.186933 -0.000486939 0.0
0.209513 -0.000594163 0.0
0.210514 -0.000619668 0.0
0 0 0.0
0.0481105 -5.05784e-05 0.0
0.12838 -0.000301548 0.0
0.0908636 -0.0001663 0.0
0.126779 -0.000264844 0.0
0.159317 -0.000391241 0.0
0 0 0.0
0.0892821 -0.000147385 0.0
0.0469879 -4.48555e-05 0.0
0.188233 -0.000575659 0.0
0.160839 -0.000447536 0.0
0.227953 -0.000761067 0.0
0.247359 -0.000801829 0.0
0.249997 -0.000854398 0.0
0.247652 -0.000864228 0.0
0.240296 -0.00080821 0.0
0.2397 -0.000803776 0.0
0.227083 -0.000714787 0.0
0.1868 -0.000553129 0.0
0.209423 -0.000659885 0.0
0.210607 -0.000687781 0.0
0 0 0.0
0.0482051 -5.56841e-05 0.0
0.0909887 -0.00018108 0.0
0.128527 -0.000332617 0.0
0.126629 -0.000296871 0.0
0.159194 -0.000433098 0.0
0 0 0.0
0.0468997 -4.94158e-05 0.0
0.0891724 -0.000160572 0.0
0.188326 -0.000621248 0.0
0.160981 -0.00049538 0.0
0.228015 -0.000829349 0.0
0.240368 -0.000934562 0.0
0.247333 -0.000890394 0.0
0.249996 -0.000947278 0.0
0.247673 -0.000936283 0.0
0.239648 -0.000890635 0.0
0.22701 -0.000792591 0.0
0.186711 -0.000597016 0.0
0.209324 -0.000729892 0.0
0.21071 -0.000762881 0.0
0 0 0.0
0.0483104 -6.10095e-05 0.0
0.128717 -0.000373146 0.0
0.0911576 -0.000201934 0.0
0.126507 -0.000323044 0.0
0.159057 -0.000478549 0.0
0.0468114 -5.38156e-05 0.0
0 0 0.0
0.0890246 -0.000178611 0.0
0.161139 -0.000547701 0.0
0.188496 -0.000704274 0.0
0.228133 -0.000952078 0.0
0.240427 -0.00103725 0.0
0.247699 -0.00103815 0.0
0.24729 -0.00102987 0.0
0.249994 -0.00105042 0.0
0.239589 -0.000987215 0.0
0.226897 -0.000906078 0.0
0.186548 -0.000675149 0.0
0.209213 -0.00080736 0.0
0.210824 -0.00084471 0.0
0 0 0.0
0.0484246 -6.66041e-05 0.0
0.0913271 -0.000220902 0.0
0.161314 -0.00060338 0.0
0.128873 -0.000404502 0.0
0.126349 -0.000356354 0.0
0.158937 -0.000517852 0.0
0.0467084 -5.97366e-05 0.0
0 0 0.0
0.0888891 -0.000195408 0.0
0.210932 -0.00092115 0.0
0.188613 -0.000761296 0.0
0.240478 -0.00112449 0.0
0.228229 -0.00105737 0.0
0.247743 -0.00120004 0.0
0.249991 -0.00116149 0.0
0.247263 -0.00111313 0.0
0.239524 -0.00109017 0.0
0.226819 -0.000982895 0.0
0.186438 -0.000726766 0.0
0.15874 -0.000582874 0.0
0.209091 -0.000890014 0.0
0 0 0.0
0.0914969 -0.000240844 0.0
0.0485589 -7.3615e-05 0.0
0.161469 -0.000654941 0.0
0.129106 -0.000453892 0.0
0.126175 -0.000393568 0.0
0 0 0.0
0.0465948 -6.6105e-05 0.0
0.0887084 -0.000218054 0.0
0.21105 -0.00100308 0.0
0.188823 -0.000866033 0.0
0.240533 -0.00121884 0.0
0.228337 -0.0011723 0.0
0.247767 -0.0013005 0.0
0.249986 -0.00128449 0.0
0.247234 -0.00120475 0.0
0.158593 -0.000627796 0.0
0.208977 -0.000965864 0.0
0.239449 -0.00120138 0.0
0.226733 -0.0010663 0.0
0.18628 -0.000801355 0.0
0 0 0.0
0.0486904 -7.98157e-05 0.0
0.0917003 -0.000263959 0.0
0.161683 -0.000723441 0.0
0.129335 -0.000500999 0.0
0.088525 -0.000240525 0.0
0.125953 -0.000440772 0.0
0 0 0.0
0.0464634 -7.37858e-05 0.0
0.211202 -0.00111148 0.0
0.189017 -0.000960601 0.0
0.240607 -0.00134936 0.0
0.228455 -0.00130037 0.0
0.247795 -0.0014084 0.0
0.249982 -0.00142057 0.0
0.24717 -0.00138678 0.0
0.158397 -0.000690836 0.0
0.239368 -0.00132495 0.0
0.208854 -0.00104488 0.0
0.22658 -0.00121551 0.0
0.18606 -0.000905725 0.0
0 0 0.0
0.0919507 -0.000293233 0.0
0.048841 -8.7248e-05 0.0
0.16197 -0.000817269 0.0
0.129587 -0.000553859 0.0
0.0883449 -0.000263617 0.0
0.125739 -0.000487552 0.0
0 0 0.0
0.0463226 -8.22018e-05 0.0
0.18923 -0.00106806 0.0
0.211371 -0.00123418 0.0
0.240689 -0.00149705 0.0
0.247831 -0.00155577 0.0
0.228585 -0.00144283 0.0
0.249972 -0.00156671 0.0
0.24712 -0.00153267 0.0
0.239277 -0.00145681 0.0
0.249535 -0.00168654 0.0
0.15818 -0.000759259 0.0
0.226449 -0.00133736 0.0
0.208642 -0.00118054 0.0
0.185914 -0.000971708 0.0
0 0 0.0
0.0921811 -0.000320963 0.0
0.0490184 -9.66547e-05 0.0
0.162187 -0.000890488 0.0
0.12987 -0.00061421 0.0
0.0881259 -0.000291583 0.0
0.125541 -0.00053 0.0
0 0 0.0
0.046176 -9.11249e-05 0.0
0.189469 -0.00118886 0.0
0.211559 -0.00137289 0.0
0.240772 -0.0016578 0.0
0.228728 -0.00160574 0.0
0.247883 -0.00180434 0.0
0.249141 -0.00167548 0.0
0.243756 -0.00161644 0.0
0.233386 -0.00151123 0.0
0.249951 -0.00182045 0.0
0.157945 -0.000832593 0.0
0.218034 -0.00136537 0.0
0.20324 -0.00123529 0.0
0.18565 -0.00108788 0.0
0 0 0.0
0.0924601 -0.000356245 0.0
0.049202 -0.00010588 0.0
0.162483 -0.00099399 0.0
0.130187 -0.000685314 0.0
0.12525 -0.000591276 0.0
0.0878846 -0.000322374 0.0
0 0 0.0
0.0459971 -0.000101023 0.0
0.189735 -0.00132839 0.0
0.211765 -0.00153066 0.0
0.247915 -0.00199617 0.0
0.228882 -0.00178785 0.0
0.240869 -0.00184196 0.0
0.247022 -0.00178339 0.0
0.239103 -0.00169476 0.0
0.2262 -0.00155873 0.0
0.249925 -0.00201002 0.0
0.157687 -0.000911399 0.0
0.208322 -0.00137805 0.0
0.185414 -0.00118896 0.0
0 0 0.0
0.0493976 -0.000116827 0.0
0.0927733 -0.000399464 0.0
0.130487 -0.000755376 0.0
0.19003 -0.00148723 0.0
0.162817 -0.00111473 0.0
0.124971 -0.000647448 0.0
0.0876199 -0.00035516 0.0
0.0458058 -0.000112047 0.0
0 0 0.0
0.22902 -0.00195802 0.0
0.211994 -0.00171347 0.0
0.247942 -0.00216393 0.0
0.240965 -0.00205099 0.0
0.226025 -0.00170408 0.0
0.246941 -0.00196227 0.0
0.23897 -0.00185921 0.0
0.249894 -0.00221933 0.0
0.18516 -0.00129196 0.0
0.157351 -0.00100592 0.0
0.208037 -0.00154179 0.0
0 0 0.0
0.0496276 -0.000132563 0.0
0.0931667 -0.000456586 0.0
0.13088 -0.000852511 0.0
0.190272 -0.00162895 0.0
0.163268 -0.00129394 0.0
0.124671 -0.000703753 0.0
0.0873042 -0.000391387 0.0
0.045598 -0.000122789 0.0
0 0 0.0
0.124346 -0.000760631 0.0
0.229165 -0.00213989 0.0
0.212323 -0.00199613 0.0
0.241107 -0.00238929 0.0
0.247964 -0.00234279 0.0
0.225754 -0.00191457 0.0
0.238824 -0.00203467 0.0
0.246848 -0.00215977 0.0
0.249844 -0.0024512 0.0
0.18488 -0.00139778 0.0
0.157041 -0.00108975 0.0
0.20779 -0.00167705 0.0
0 0 0.0
0.0498885 -0.000150374 0.0
0.0935765 -0.000522001 0.0
0.131325 -0.000972081 0.0
0.190628 -0.0018377 0.0
0.163699 -0.00147293 0.0
0.0453667 -0.000135473 0.0
0.0869874 -0.000425635 0.0
0 0 0.0
0.124052 -0.000803494 0.0
0.229353 -0.00240229 0.0
0.212606 -0.00225107 0.0
0.241209 -0.00266631 0.0
0.247982 -0.00260424 0.0
0.225559 -0.00205407 0.0
0.238654 -0.0022238 0.0
0.249781 -0.00270857 0.0
0.246677 -0.0024771 0.0
0.18465 -0.00147476 0.0
0.156707 -0.0011682 0.0
0.207515 -0.00181164 0.0
0 0 0.0
0.0501858 -0.000172957 0.0
0.0940454 -0.000600636 0.0
0.131908 -0.00113834 0.0
0.191121 -0.00215265 0.0
0.212911 -0.00254859 0.0
0.164178 -0.00168743 0.0
0.0451341 -0.000145371 0.0
0.0866521 -0.000456518 0.0
0 0 0.0
0.123684 -0.000850637 0.0
0.229621 -0.00280612 0.0
0.241288 -0.00291978 0.0
0.247991 -0.00289577 0.0
0.249715 -0.00292255 0.0
0.225349 -0.00219351 0.0
0.238447 -0.00243195 0.0
0.246525 -0.00271986 0.0
0.156345 -0.00124154 0.0
0.18432 -0.0015787 0.0
0.207205 -0.00194913 0.0
0 0 0.0
0.0505549 -0.000202601 0.0
0.0945916 -0.000701389 0.0
0.132498 -0.00132096 0.0
0.191453 -0.00238069 0.0
0.213236 -0.00288471 0.0
0.164717 -0.0019411 0.0
0.0448717 -0.000154986 0.0
0.0862968 -0.000483352 0.0
0 0 0.0
0.156036 -0.00128745 0.0
0.0859295 -0.000501967 0.0
0.123235 -0.000893418 0.0
0.229829 -0.00317792 0.0
0.24136 -0.00318703 0.0
0.24797 -0.00338014 0.0
0.249638 -0.00314703 0.0
0.246387 -0.0029266 0.0
0.225058 -0.00237027 0.0
0.23811 -0.00274342 0.0
0.183857 -0.00169875 0.0
0.206912 -0.00207157 0.0
0.230009 -0.00350499 0.0
0 0 0.0
0.0509645 -0.000237722 0.0
0.133173 -0.00154125 0.0
0.0952246 -0.00082464 0.0
0.21359 -0.00328568 0.0
0.192051 -0.00281832 0.0
0.16532 -0.00224156 0.0
0.044585 -0.000161429 0.0
0 0 0.0
0.183545 -0.00176944 0.0
0.15562 -0.00134222 0.0
0.122822 -0.000922982 0.0
0.0442924 -0.000170781 0.0
0.0855472 -0.00051651 0.0
0.241448 -0.00357379 0.0
0.247936 -0.00367791 0.0
0.249498 -0.00347943 0.0
0.24937 -0.00375715 0.0
0.246219 -0.00314303 0.0
0.224715 -0.00255902 0.0
0.2378 -0.00298638 0.0
0.206583 -0.00218251 0.0
0.230175 -0.00387318 0.0
0.0514249 -0.000279311 0.0
0 0 0.0
0.133822 -0.00175742 0.0
0.0959598 -0.000968551 0.0
0.21396 -0.00374207 0.0
0.192447 -0.00312939 0.0
0.166 -0.00259742 0.0
0 0 0.0
0.183099 -0.00184719 0.0
0.155079 -0.00138768 0.0
0.122462 -0.000929634 0.0
0.044016 -0.000174178 0.0
0.0851601 -0.000523687 0.0
0.241534 -0.00420503 0.0
0.247888 -0.00399321 0.0
0.249209 -0.00404816 0.0
0.245841 -0.00358357 0.0
0.224326 -0.00274871 0.0
0.237451 -0.00324248 0.0
0.206013 -0.00236004 0.0
0.230394 -0.00438549 0.0
0 0 0.0
0.0519915 -0.00033266 0.0
0.134688 -0.00205668 0.0
0.0967362 -0.00112524 0.0
0.166758 -0.00300724 0.0
0.214353 -0.00427164 0.0
0.193169 -0.00371897 0.0
0 0 0.0
0 0 0.0
0.182591 -0.00192078 0.0
0.154588 -0.00141496 0.0
0.122024 -0.000933814 0.0
0.084776 -0.000524006 0.0
0.0437228 -0.000175141 0.0
0.241567 -0.0047238 0.0
0.247779 -0.00445526 0.0
0.237116 -0.00346252 0.0
0.248953 -0.00447554 0.0
0.245493 -0.0039335 0.0
0.223866 -0.00295094 0.0
0.205493 -0.00249169 0.0
0.241569 -0.00519317 0.0
0.230585 -0.00496689 0.0
0.0526604 -0.000393366 0.0
0.0977279 -0.0013214 0.0
0.135683 -0.00241011 0.0
0.167437 -0.0033933 0.0
0.214768 -0.00486985 0.0
0.193636 -0.00414432 0.0
0 0 0.0
0 0 0.0
0.154172 -0.00141977 0.0
0.181888 -0.00199197 0.0
0.0844352 -0.000514487 0.0
0.121507 -0.000923862 0.0
0.0434234 -0.000176173 0.0
0.247551 -0.00519849 0.0
0.248617 -0.0049544 0.0
0.204911 -0.00262073 0.0
0.236735 -0.00368748 0.0
0.245186 -0.00422714 0.0
0.223134 -0.00323077 0.0
0.24155 -0.00568409 0.0
0.230849 -0.00587191 0.0
0.215193 -0.00555629 0.0
0.0534997 -0.000470035 0.0
0.0988852 -0.00156139 0.0
0.137011 -0.00288308 0.0
0.168377 -0.00392528 0.0
0.194494 -0.004937 0.0
0 0 0.0
0 0 0.0
0.153508 -0.00142126 0.0
0.181244 -0.00204964 0.0
0.0840371 -0.000498573 0.0
0.121054 -0.000906545 0.0
0.0431276 -0.000173345 0.0
0.244824 -0.0045413 0.0
0.248211 -0.00547005 0.0
0.247297 -0.00580789 0.0
0.204244 -0.00275074 0.0
0.236186 -0.00399618 0.0
0.22248 -0.00346399 0.0
0.180542 -0.00210151 0.0
0.241431 -0.00667928 0.0
0 0 0.0
0.230989 -0.00666041 0.0
0.195246 -0.0056828 0.0
0.215628 -0.00632377 0.0
0.0544047 -0.000555065 0.0
0.138151 -0.00329992 0.0
0.100388 -0.0018779 0.0
0.169646 -0.00469562 0.0
0 0 0.0
0 0 0.0
0 0 0.0
0 0 0.0
0 0 0.0
0.0428681 -0.000168524 0.0
0.1206 -0.000885625 0.0
0.15291 -0.00142092 0.0
0.0837076 -0.000487075 0.0
0.244274 -0.00496523 0.0
0.247705 -0.00604641 0.0
0.246987 -0.00647667 0.0
0.221868 -0.00364609 0.0
0.203482 -0.0028846 0.0
0.235245 -0.00446372 0.0
0.202765 -0.00300077 0.0
0.179957 -0.00213754 0.0
0.241256 -0.00750389 0.0
0.231112 -0.00751959 0.0
0 0 0.0
9.44668e-05 -3.84295e-05 0.0
0 0 0.0
-0.000348385 0.00200253 0.0
0.216081 -0.00720368 0.0
0.195861 -0.00629866 0.0
0.0555791 -0.000669334 0.0
0.139652 -0.00384828 0.0
0.101989 -0.0022181 0.0
0.170861 -0.00544386 0.0
0 0 0.0
0 0 0.0
0 0 0.0
-0.000258629 0.001078 0.0
-2.19947e-05 -0.000111157 0.0
3.52501e-05 -5.43355e-05 0.0
0 0 0.0
0.0425924 -0.000166288 0.0
0.120208 -0.000865211 0.0
0.152277 -0.00142026 0.0
0.0833305 -0.000473215 0.0
0.243626 -0.00544011 0.0
0.247094 -0.00667741 0.0
0.246578 -0.00721084 0.0
0.221181 -0.00385121 0.0
0.234605 -0.00476911 0.0
0.201969 -0.00311905 0.0
0.178911 -0.0022093 0.0
0.241024 -0.0084043 0.0
0.234104 -0.00842751 0.0
0.224433 -0.0082392 0.0
0 0 0.0
0.000129829 3.12433e-06 0.0
0 0 0.0
0 0 0.0
-0.00123701 0.00453716 0.0
-0.00118745 0.00296569 0.0
0.211982 -0.00787045 0.0
0.196719 -0.00722382 0.0
0.103662 -0.00258064 0.0
0.056846 -0.000804557 0.0
0.141359 -0.00449666 0.0
0.172197 -0.0063005 0.0
0 0 0.0
-0.000418232 0.000518086 0.0
-0.000802508 0.00151662 0.0
-0.000254412 0.000187518 0.0
-0.000210999 0.000205928 0.0
0 0 0.0
0.0423258 -0.000164567 0.0
0.119749 -0.000848083 0.0
0.151613 -0.00141774 0.0
0.0829931 -0.000464098 0.0
0.242854 -0.00595363 0.0
0.246366 -0.0073632 0.0
0.246066 -0.00801739 0.0
0.219888 -0.00421398 0.0
0.233887 -0.00507822 0.0
0.200927 -0.00328407 0.0
0.150919 -0.00144156 0.0
0.177978 -0.00228828 0.0
0.240766 -0.00918374 0.0
0.231205 -0.00918534 0.0
0.216835 -0.00897434 0.0
0 0 0.0
-0.00011621 0.000125364 0.0
0 0 0.0
0 0 0.0
0 0 0.0
0 0 0.0
-0.00214195 0.00316109 0.0
-0.00034692 0.00391921 0.0
-0.00126588 0.00589686 0.0
-0.0029417 0.00774192 0.0
-0.00247839 0.00527847 0.0
0 0 0.0
-6.4971e-05 0.00587691 0.0
0.197861 -0.0085858 0.0
0.17337 -0.00710597 0.0
0 0 0.0
0.0585194 -0.000994052 0.0
0.105802 -0.00307553 0.0
0.14362 -0.00543727 0.0
0 0 0.0
0 0 0.0
-0.00128271 0.00151164 0.0
-0.000970533 0.000855708 0.0