# vtk DataFile Version 3.0
Mesh NS-CD Problem
ASCII
DATASET UNSTRUCTURED_GRID
POINTS 10839 float
-2 0.3 0.0
-2 0.4 0.0
-2 0.35 0.0
-2 0.45 0.0
-2 0.5 0.0
-2 0.55 0.0
-2 0 0.0
-2 0.05 0.0
-2 0.85 0.0
-2 0.9 0.0
-2 0.1 0.0
-2 0.15 0.0
-2 0.25 0.0
-2 0.2 0.0
-1.96653 0.266667 0.0
-1.96524 0.415385 0.0
-1.96485 0.315 0.0
-1.96348 0.363636 0.0
-1.96414 0.464286 0.0
-2 0.6 0.0
-1.96538 0.584615 0.0
-1.96538 0.538462 0.0
-1.94979 0 0.0
-1.96653 0.0666666 0.0
-1.93306 0.0333333 0.0
-2 0.8 0.0
-2 0.75 0.0
-2 0.7 0.0
-2 0.65 0.0
-1.96249 0.7375 0.0
-1.96666 0.833333 0.0
-2 1 0.0
-2 0.95 0.0
-1.96249 0.8875 0.0
-1.96666 0.933333 0.0
-1.96234 0.1125 0.0
-1.96653 0.166667 0.0
-1.93724 0.225 0.0
-1.92971 0.28 0.0
-1.93048 0.380769 0.0
-1.93048 0.423077 0.0
-1.89958 0.3375 0.0
-1.9292 0.484203 0.0
-1.92117 0.530907 0.0
-1.96363 0.636364 0.0
-1.93076 0.576923 0.0
-1.89958 0 0.0
-1.88703 0.0375 0.0
-1.90963 0.08 0.0
-1.86611 0.0666666 0.0
-1.93749 0.775 0.0
-1.93635 0.672727 0.0
-1.92999 0.72 0.0
-1.93332 0.866667 0.0
-1.92856 0.821429 0.0
-1.94999 1 0.0
-1.92499 0.9625 0.0
-1.92499 0.925 0.0
-1.89998 0.9 0.0
-1.89958 0.125 0.0
-1.92827 0.178571 0.0
-1.89958 0.233333 0.0
-1.89045 0.290909 0.0
-1.86096 0.311538 0.0
-1.89241 0.392857 0.0
-1.89334 0.448489 0.0
-1.85655 0.357143 0.0
-1.89614 0.653846 0.0
-1.89427 0.504121 0.0
-1.8952 0.559753 0.0
-1.89614 0.615385 0.0
-1.84937 0 0.0
-1.83264 0.0333333 0.0
-1.85655 0.107143 0.0
-1.81172 0.075 0.0
-1.89998 0.766667 0.0
-1.89089 0.709091 0.0
-1.87498 0.85 0.0
-1.85998 0.79 0.0
-1.88748 0.8125 0.0
-1.89998 1 0.0
-1.88748 0.9625 0.0
-1.86664 0.933333 0.0
-1.85712 0.892857 0.0
-1.87448 0.15 0.0
-1.86611 0.194444 0.0
-1.83264 0.133333 0.0
-1.83264 0.2625 0.0
-1.82068 0.321429 0.0
-1.85664 0.404762 0.0
-1.85674 0.452381 0.0
-1.85683 0.5 0.0
-1.81184 0.375 0.0
-1.85712 0.642857 0.0
-1.85693 0.547619 0.0
-1.85702 0.595238 0.0
-1.79917 0 0.0
-1.78482 0.0357143 0.0
-1.79917 0.116667 0.0
-1.76569 0.0666666 0.0
-1.85452 0.745455 0.0
-1.82689 0.692308 0.0
-1.81815 0.781818 0.0
-1.82497 0.825 0.0
-1.84997 1 0.0
-1.8333 0.958333 0.0
-1.81247 0.8875 0.0
-1.81247 0.925 0.0
-1.81742 0.218182 0.0
-1.82427 0.175 0.0
-1.77634 0.145455 0.0
-1.79144 0.242308 0.0
-1.78482 0.285714 0.0
-1.77469 0.332653 0.0
-1.81215 0.529762 0.0
-1.81194 0.422619 0.0
-1.81203 0.470238 0.0
-1.76714 0.392857 0.0
-1.81234 0.625 0.0
-1.79732 0.571429 0.0
-1.74896 0 0.0
-1.73222 0.0333333 0.0
-1.75398 0.105 0.0
-1.71883 0.07 0.0
-1.79227 0.730769 0.0
-1.78007 0.679121 0.0
-1.75765 0.769231 0.0
-1.78178 0.818182 0.0
-1.78996 0.86 0.0
-1.79996 1 0.0
-1.78568 0.964286 0.0
-1.76663 0.922222 0.0
-1.76569 0.1875 0.0
-1.73222 0.15 0.0
-1.74896 0.25 0.0
-1.73714 0.304762 0.0
-1.76743 0.537202 0.0
-1.72869 0.343878 0.0
-1.76732 0.485119 0.0
-1.76723 0.440476 0.0
-1.72243 0.410714 0.0
-1.76757 0.607143 0.0
-1.69875 0 0.0
-1.68369 0.035 0.0
-1.69875 0.1125 0.0
-1.66528 0.075 0.0
-1.74341 0.708974 0.0
-1.73324 0.665934 0.0
-1.70441 0.74478 0.0
-1.71423 0.785714 0.0
-1.72303 0.826923 0.0
-1.74541 0.854545 0.0
-1.74541 0.890909 0.0
-1.74996 1 0.0
-1.73745 0.9625 0.0
-1.71359 0.927273 0.0
-1.68716 0.153846 0.0
-1.7131 0.214286 0.0
-1.70725 0.275 0.0
-1.69712 0.321939 0.0
-1.72279 0.589286 0.0
-1.72261 0.5 0.0
-1.7227 0.544643 0.0
-1.6827 0.355102 0.0
-1.67773 0.428571 0.0
-1.70763 0.464286 0.0
-1.70369 0.62449 0.0
-1.64854 0 0.0
-1.63181 0.0375 0.0
-1.64137 0.142857 0.0
-1.61764 0.0769231 0.0
-1.69458 0.703846 0.0
-1.67471 0.657437 0.0
-1.66143 0.727637 0.0
-1.67125 0.768571 0.0
-1.67851 0.821429 0.0
-1.68841 0.861538 0.0
-1.70904 0.890909 0.0
-1.69995 1 0.0
-1.68176 0.963636 0.0
-1.67267 0.927273 0.0
-1.65427 0.187143 0.0
-1.66718 0.231429 0.0
-1.66554 0.3 0.0
-1.67802 0.571429 0.0
-1.67792 0.523809 0.0
-1.6367 0.366327 0.0
-1.63682 0.423469 0.0
-1.62568 0.502976 0.0
-1.6629 0.470238 0.0
-1.65254 0.618367 0.0
-1.6059 0.307143 0.0
-1.59833 0 0.0
-1.58288 0.0384615 0.0
-1.60563 0.169643 0.0
-1.58179 0.112271 0.0
-1.56964 0.0714286 0.0
-1.64574 0.690385 0.0
-1.62827 0.751429 0.0
-1.63371 0.791071 0.0
-1.64279 0.857143 0.0
-1.65378 0.896154 0.0
-1.64994 1 0.0
-1.6363 0.963636 0.0
-1.61916 0.930769 0.0
-1.61345 0.209107 0.0
-1.62126 0.248571 0.0
-1.56989 0.196429 0.0
-1.63324 0.553571 0.0
-1.58846 0.535714 0.0
-1.59408 0.361905 0.0
-1.59161 0.402211 0.0
-1.58832 0.464286 0.0
-1.61504 0.598581 0.0
-1.59683 0.64359 0.0
-1.57899 0.274107 0.0
-1.56176 0.322381 0.0
-1.54812 0 0.0
-1.53378 0.0357143 0.0
-1.54593 0.147619 0.0
-1.53385 0.0732143 0.0
-1.53393 0.110714 0.0
-1.58522 0.704286 0.0
-1.58709 0.745 0.0
-1.58896 0.785714 0.0
-1.60695 0.830357 0.0
-1.60707 0.892857 0.0
-1.59993 1 0.0
-1.58454 0.965385 0.0
-1.57135 0.928571 0.0
-1.55209 0.241071 0.0
-1.5291 0.198214 0.0
-1.56936 0.570918 0.0
-1.54369 0.517857 0.0
-1.5464 0.380952 0.0
-1.54564 0.427721 0.0
-1.54488 0.47449 0.0
-1.55026 0.606122 0.0
-1.54222 0.677143 0.0
-1.52943 0.282857 0.0
-1.52143 0.33619 0.0
-1.49792 0 0.0
-1.49802 0.05 0.0
-1.49822 0.15 0.0
-1.49312 0.1 0.0
-1.5423 0.717143 0.0
-1.54419 0.767857 0.0
-1.54727 0.819048 0.0
-1.57122 0.861905 0.0
-1.53553 0.914286 0.0
-1.54992 1 0.0
-1.53563 0.964286 0.0
-1.49842 0.25 0.0
-1.48831 0.2 0.0
-1.5214 0.558929 0.0
-1.49891 0.5 0.0
-1.49871 0.4 0.0
-1.47631 0.45 0.0
-1.49911 0.6 0.0
-1.49921 0.65 0.0
-1.49931 0.7 0.0
-1.48111 0.35 0.0
-1.48351 0.3 0.0
-1.44771 0 0.0
-1.44782 0.05 0.0
-1.44804 0.15 0.0
-1.44793 0.1 0.0
-1.49941 0.75 0.0
-1.49951 0.8 0.0
-1.49981 0.95 0.0
-1.49961 0.85 0.0
-1.49971 0.9 0.0
-1.49991 1 0.0
-1.44826 0.25 0.0
-1.43815 0.2 0.0
-1.47151 0.55 0.0
-1.44881 0.5 0.0
-1.44859 0.4 0.0
-1.42619 0.45 0.0
-1.44913 0.65 0.0
-1.44902 0.6 0.0
-1.44935 0.75 0.0
-1.44924 0.7 0.0
-1.43972 0.35 0.0
-1.43336 0.3 0.0
-1.3975 0 0.0
-1.39762 0.05 0.0
-1.39786 0.15 0.0
-1.39274 0.1 0.0
-1.44957 0.85 0.0
-1.44946 0.8 0.0
-1.4523 0.95 0.0
-1.44968 0.9 0.0
-1.4499 1 0.0
-1.3981 0.25 0.0
-1.38798 0.2 0.0
-1.42141 0.55 0.0
-1.3987 0.5 0.0
-1.39834 0.35 0.0
-1.37845 0.4 0.0
-1.37607 0.45 0.0
-1.40784 0.65 0.0
-1.39894 0.6 0.0
-1.41185 0.75 0.0
-1.39918 0.7 0.0
-1.38322 0.3 0.0
-1.34729 0 0.0
-1.34492 0.05 0.0
-1.34018 0.15 0.0
-1.34255 0.1 0.0
-1.40707 0.85 0.0
-1.39941 0.8 0.0
-1.39977 0.95 0.0
-1.39965 0.9 0.0
-1.39989 1 0.0
-1.33781 0.2 0.0
-1.33544 0.25 0.0
-1.37131 0.55 0.0
-1.34859 0.5 0.0
-1.33833 0.4 0.0
-1.3307 0.35 0.0
-1.32595 0.45 0.0
-1.34885 0.6 0.0
-1.36655 0.65 0.0
-1.36179 0.75 0.0
-1.34911 0.7 0.0
-1.33307 0.3 0.0
-1.29708 0 0.0
-1.29722 0.05 0.0
-1.2975 0.15 0.0
-1.29236 0.1 0.0
-1.35703 0.85 0.0
-1.34937 0.8 0.0
-1.34988 1 0.0
-1.34962 0.9 0.0
-1.35226 0.95 0.0
-1.28528 0.25 0.0
-1.28764 0.2 0.0
-1.28931 0.35 0.0
-1.32121 0.55 0.0
-1.29848 0.5 0.0
-1.28709 0.45 0.0
-1.2982 0.4 0.0
-1.29876 0.6 0.0
-1.31647 0.65 0.0
-1.29918 0.75 0.0
-1.29904 0.7 0.0
-1.28292 0.3 0.0
-1.24687 0 0.0
-1.24702 0.05 0.0
-1.24717 0.1 0.0
-1.24732 0.15 0.0
-1.29946 0.85 0.0
-1.29932 0.8 0.0
-1.29987 1 0.0
-1.29974 0.95 0.0
-1.30462 0.9 0.0
-1.24762 0.25 0.0
-1.23747 0.2 0.0
-1.24792 0.35 0.0
-1.22807 0.4 0.0
-1.27111 0.55 0.0
-1.24837 0.5 0.0
-1.24822 0.45 0.0
-1.24867 0.6 0.0
-1.26639 0.65 0.0
-1.26167 0.75 0.0
-1.24897 0.7 0.0
-1.23277 0.3 0.0
-1.19667 0 0.0
-1.19683 0.05 0.0
-1.18964 0.15 0.0
-1.19198 0.1 0.0
-1.25695 0.85 0.0
-1.24927 0.8 0.0
-1.25223 0.95 0.0
-1.24987 1 0.0
-1.24957 0.9 0.0
-1.1873 0.2 0.0
-1.18496 0.25 0.0
-1.18028 0.35 0.0
-1.17794 0.4 0.0
-1.1981 0.45 0.0
-1.19842 0.55 0.0
-1.19826 0.5 0.0
-1.19858 0.6 0.0
-1.19874 0.65 0.0
-1.19906 0.75 0.0
-1.1989 0.7 0.0
-1.18262 0.3 0.0
-1.14646 0 0.0
-1.14663 0.05 0.0
-1.1418 0.1 0.0
-1.13713 0.2 0.0
-1.14697 0.15 0.0
-1.20691 0.85 0.0
-1.20926 0.8 0.0
-1.20221 0.95 0.0
-1.19986 1 0.0
-1.20456 0.9 0.0
-1.13997 0.3 0.0
-1.14731 0.25 0.0
-1.13781 0.4 0.0
-1.13014 0.35 0.0
-1.12548 0.45 0.0
-1.14815 0.5 0.0
-1.15962 0.55 0.0
-1.14849 0.6 0.0
-1.15745 0.65 0.0
-1.16155 0.75 0.0
-1.14917 0.8 0.0
-1.14883 0.7 0.0
-1.09625 0 0.0
-1.09661 0.1 0.0
-1.09393 0.05 0.0
-1.09697 0.2 0.0
-1.08929 0.15 0.0
-1.15687 0.85 0.0
-1.14985 1 0.0
-1.15219 0.95 0.0
-1.14951 0.9 0.0
-1.09733 0.3 0.0
-1.08465 0.25 0.0
-1.09769 0.4 0.0
-1.08 0.35 0.0
-1.08661 0.45 0.0
-1.09804 0.5 0.0
-1.12082 0.55 0.0
-1.10916 0.8 0.0
-1.10629 0.7 0.0
-1.0984 0.6 0.0
-1.11616 0.65 0.0
-1.11149 0.75 0.0
-1.04604 0 0.0
-1.04623 0.05 0.0
-1.04642 0.1 0.0
-1.0468 0.2 0.0
-1.03911 0.15 0.0
-1.09948 0.9 0.0
-1.0993 0.85 0.0
-1.09984 1 0.0
-1.09966 0.95 0.0
-1.04718 0.3 0.0
-1.03449 0.25 0.0
-1.04756 0.4 0.0
-1.02986 0.35 0.0
-1.04775 0.45 0.0
-1.04794 0.5 0.0
-1.04813 0.55 0.0
-1.05911 0.8 0.0
-1.04831 0.6 0.0
-1.06376 0.7 0.0
-1.0485 0.65 0.0
-1.04888 0.75 0.0
-0.995833 0 0.0
-0.991231 0.1 0.0
-0.996033 0.05 0.0
-0.986629 0.2 0.0
-0.98893 0.15 0.0
-1.05447 0.9 0.0
-1.04926 0.85 0.0
-1.04983 1 0.0
-1.04964 0.95 0.0
-0.984328 0.25 0.0
-0.99703 0.3 0.0
-0.997429 0.4 0.0
-0.997628 0.45 0.0
-0.979726 0.35 0.0
-0.997827 0.5 0.0
-0.998027 0.55 0.0
-0.998226 0.6 0.0
-0.961416 0.475 0.0
-1.00907 0.8 0.0
-0.998426 0.65 0.0
-0.998625 0.7 0.0
-1.01138 0.75 0.0
-0.945625 0 0.0
-0.946044 0.1 0.0
-0.943334 0.05 0.0
-0.946463 0.2 0.0
-0.938752 0.15 0.0
-1.00444 0.9 0.0
-1.00675 0.85 0.0
-0.999821 1 0.0
-1.00213 0.95 0.0
-0.93417 0.25 0.0
-0.946881 0.3 0.0
-0.9473 0.4 0.0
-0.929588 0.35 0.0
-0.925005 0.45 0.0
-0.960371 0.525 0.0
-0.959325 0.575 0.0
-0.958279 0.625 0.0
-0.922714 0.5 0.0
-0.959017 0.8 0.0
-0.957233 0.675 0.0
-0.952999 0.7125 0.0
-0.948766 0.75 0.0
-0.895417 0 0.0
-0.895855 0.1 0.0
-0.893136 0.05 0.0
-0.896294 0.2 0.0
-0.888573 0.15 0.0
-0.949184 0.85 0.0
-0.954415 0.9 0.0
-0.949812 1 0.0
-0.949603 0.95 0.0
-0.884011 0.25 0.0
-0.896733 0.3 0.0
-0.874887 0.45 0.0
-0.879449 0.35 0.0
-0.897171 0.4 0.0
-0.920423 0.55 0.0
-0.918132 0.6 0.0
-0.915841 0.65 0.0
-0.872606 0.5 0.0
-0.908968 0.8 0.0
-0.91355 0.7 0.0
-0.898707 0.75 0.0
-0.845208 0 0.0
-0.845438 0.05 0.0
-0.845667 0.1 0.0
-0.845896 0.15 0.0
-0.833853 0.25 0.0
-0.846126 0.2 0.0
-0.899146 0.85 0.0
-0.904386 0.9 0.0
-0.899584 0.95 0.0
-0.899804 1 0.0
-0.838062 0.35 0.0
[...]
POINT_DATA 10839
VECTORS Velocity float
0.21 0 0.0
0.24 0 0.0
0.2275 0 0.0
0.2475 0 0.0
0.25 0 0.0
0.2475 0 0.0
0 0 0.0
0.0475 0 0.0
0.1275 0 0.0
0.09 0 0.0
0.09 0 0.0
0.1275 0 0.0
0.1875 0 0.0
0.16 0 0.0
0.195557 -2.33937e-05 0.0
0.242841 -3.19627e-05 0.0
0.215776 -2.78655e-05 0.0
0.231406 -3.1429e-05 0.0
0.248725 -3.40377e-05 0.0
0.24 0 0.0
0.24284 -3.18897e-05 0.0
0.24852 -3.27779e-05 0.0
0 0 0.0
0.0622239 -4.0504e-06 0.0
0.0322268 -2.67581e-06 0.0
0.16 0 0.0
0.1875 0 0.0
0.21 0 0.0
0.2275 0 0.0
0.193592 -2.62579e-05 0.0
0.138887 -1.45449e-05 0.0
0 0 0.0
0.0475 0 0.0
0.0998415 -1.00841e-05 0.0
0.0622206 -4.09557e-06 0.0
0.0998461 -1.0539e-05 0.0
0.138891 -1.4677e-05 0.0
0.17438 -3.68669e-05 0.0
0.201605 -5.05613e-05 0.0
0.235787 -6.18028e-05 0.0
0.244085 -6.46851e-05 0.0
0.223602 -8.28809e-05 0.0
0.249751 -6.75941e-05 0.0
0.249044 -7.53342e-05 0.0
0.231404 -3.19401e-05 0.0
0.244081 -6.39144e-05 0.0
0 0 0.0
0.0361076 -5.18692e-06 0.0
0.0736123 -1.45239e-05 0.0
0.0622483 -1.59252e-05 0.0
0.17437 -3.63178e-05 0.0
0.220162 -5.05585e-05 0.0
0.201594 -5.06323e-05 0.0
0.115549 -2.17225e-05 0.0
0.146676 -3.37159e-05 0.0
0 0 0.0
0.0360876 -3.48927e-06 0.0
0.0693663 -1.13433e-05 0.0
0.0899839 -2.25604e-05 0.0
0.109391 -3.05575e-05 0.0
0.146691 -3.30693e-05 0.0
0.178902 -6.19018e-05 0.0
0.206293 -8.10435e-05 0.0
0.2145 -0.000109343 0.0
0.238527 -9.69837e-05 0.0
0.24735 -0.000101016 0.0
0.229607 -0.000123541 0.0
0.226324 -8.70937e-05 0.0
0.249983 -0.00010152 0.0
0.246426 -9.87528e-05 0.0
0.23668 -9.29459e-05 0.0
0 0 0.0
0.0322497 -5.87034e-06 0.0
0.0956957 -3.47299e-05 0.0
0.0694278 -2.6171e-05 0.0
0.178876 -6.09497e-05 0.0
0.206269 -8.16494e-05 0.0
0.127477 -4.69264e-05 0.0
0.165874 -7.71929e-05 0.0
0.152326 -5.51946e-05 0.0
0 0 0.0
0.0360801 -5.02327e-06 0.0
0.0621966 -1.57538e-05 0.0
0.0956308 -3.53779e-05 0.0
0.127524 -4.73869e-05 0.0
0.15666 -6.89531e-05 0.0
0.1156 -5.44535e-05 0.0
0.193626 -0.000114022 0.0
0.218141 -0.000144461 0.0
0.24094 -0.00013168 0.0
0.247737 -0.000136592 0.0
0.25 -0.000138091 0.0
0.234397 -0.000167372 0.0
0.229577 -0.000121823 0.0
0.247727 -0.000136287 0.0
0.24092 -0.000131442 0.0
0 0 0.0
0.0344857 -8.14319e-06 0.0
0.103119 -5.35363e-05 0.0
0.0623007 -2.65283e-05 0.0
0.189727 -9.67969e-05 0.0
0.212989 -0.000135459 0.0
0.170535 -0.000104878 0.0
0.144331 -7.7744e-05 0.0
0 0 0.0
0.0398991 -8.66624e-06 0.0
0.0997877 -4.8616e-05 0.0
0.0693227 -2.57337e-05 0.0
0.170623 -0.000105019 0.0
0.14442 -7.9433e-05 0.0
0.124375 -8.06172e-05 0.0
0.183648 -0.000132955 0.0
0.20413 -0.000159339 0.0
0.222037 -0.000187783 0.0
0.249109 -0.000181554 0.0
0.244026 -0.000176691 0.0
0.24912 -0.000181563 0.0
0.23855 -0.000213445 0.0
0.234353 -0.000166378 0.0
0.244883 -0.000191458 0.0
0 0 0.0
0.0322897 -8.63305e-06 0.0
0.0940716 -5.63309e-05 0.0
0.0652141 -3.36231e-05 0.0
0.196697 -0.000145437 0.0
0.217872 -0.000178902 0.0
0.177439 -0.000147701 0.0
0.148691 -0.000102837 0.0
0.120331 -7.18656e-05 0.0
0 0 0.0
0.0343924 -8.21928e-06 0.0
0.0716466 -3.37025e-05 0.0
0.152423 -0.000115454 0.0
0.127612 -0.000100301 0.0
0.187577 -0.000165186 0.0
0.21195 -0.000206011 0.0
0.248605 -0.000225719 0.0
0.225684 -0.000233571 0.0
0.249783 -0.000227366 0.0
0.246474 -0.000223516 0.0
0.242064 -0.000261954 0.0
0.23849 -0.000212834 0.0
0 0 0.0
0.0338711 -1.08376e-05 0.0
0.0999895 -7.5437e-05 0.0
0.0695406 -4.48584e-05 0.0
0.206262 -0.000192781 0.0
0.222406 -0.000224929 0.0
0.189977 -0.000200511 0.0
0.168256 -0.000161736 0.0
0.143006 -0.000123879 0.0
0.124196 -9.12344e-05 0.0
0.0970867 -6.11724e-05 0.0
0 0 0.0
0.0360232 -1.04859e-05 0.0
0.0673183 -3.61599e-05 0.0
0.130331 -0.000121451 0.0
0.16848 -0.000162555 0.0
0.199471 -0.000212341 0.0
0.218377 -0.000249442 0.0
0.241993 -0.000262589 0.0
0.25 -0.000274166 0.0
0.247989 -0.000270952 0.0
0.22908 -0.000281692 0.0
0.244937 -0.00031246 0.0
0.24874 -0.000287841 0.0
0.234446 -0.000269171 0.0
0 0 0.0
0.0362283 -1.3995e-05 0.0
0.122654 -0.000124596 0.0
0.0712236 -5.31512e-05 0.0
0.208351 -0.000236238 0.0
0.225128 -0.000281509 0.0
0.19805 -0.000245497 0.0
0.177728 -0.000203069 0.0
0.146529 -0.000149494 0.0
0.119135 -0.000104227 0.0
0.0970545 -6.94838e-05 0.0
0 0 0.0
0.034942 -1.17518e-05 0.0
0.067282 -4.07624e-05 0.0
0.152298 -0.00017019 0.0
0.178015 -0.000207918 0.0
0.210114 -0.000263324 0.0
0.244859 -0.000312378 0.0
0.24942 -0.00032094 0.0
0.232224 -0.000331942 0.0
0.244196 -0.000355976 0.0
0.249989 -0.000380152 0.0
0.249132 -0.000337377 0.0
0.235914 -0.000322965 0.0
0.212961 -0.00032225 0.0
0 0 0.0
0.037156 -1.65101e-05 0.0
0.141106 -0.000173812 0.0
0.0999515 -0.00010486 0.0
0.0665929 -5.18323e-05 0.0
0.213631 -0.000287992 0.0
0.18661 -0.000250655 0.0
0.165088 -0.000203784 0.0
0.122245 -0.000125222 0.0
0.0928705 -7.63187e-05 0.0
0 0 0.0
0.0349132 -1.31341e-05 0.0
0.0642321 -4.33254e-05 0.0
0.165593 -0.000218015 0.0
0.186964 -0.000256355 0.0
0.158119 -0.000228353 0.0
0.247092 -0.00036564 0.0
0.248692 -0.000420872 0.0
0.23105 -0.000373239 0.0
0.240524 -0.000398428 0.0
0.248757 -0.000420521 0.0
0.240204 -0.000372062 0.0
0.229258 -0.000365702 0.0
0.199178 -0.000315622 0.0
0.218631 -0.000377616 0.0
0 0 0.0
0.0346428 -1.62066e-05 0.0
0.126164 -0.00016908 0.0
0.0681705 -5.8636e-05 0.0
0.0988124 -0.000114317 0.0
0.208085 -0.000330035 0.0
0.189763 -0.000287565 0.0
0.16813 -0.000238496 0.0
0.140624 -0.000172459 0.0
0.0954143 -9.0927e-05 0.0
0 0 0.0
0.0332582 -1.34517e-05 0.0
0.0660626 -5.16423e-05 0.0
0.183219 -0.000298342 0.0
0.159257 -0.000255867 0.0
0.244899 -0.000434138 0.0
0.24966 -0.000476942 0.0
0.235959 -0.000437385 0.0
0.244857 -0.000462379 0.0
0.249378 -0.000475725 0.0
0.238622 -0.000439769 0.0
0.218423 -0.000397412 0.0
0.203101 -0.000368793 0.0
0.223368 -0.000432229 0.0
0 0 0.0
0.0477978 -3.24246e-05 0.0
0.127914 -0.000193022 0.0
0.0904156 -0.000107333 0.0
0.202611 -0.000355144 0.0
0.177971 -0.000291876 0.0
0.147892 -0.000218736 0.0
0.118725 -0.000143102 0.0
0.0780346 -7.62941e-05 0.0
0 0 0.0
0.0342376 -1.5859e-05 0.0
0.187827 -0.000353759 0.0
0.160395 -0.000284993 0.0
0.246453 -0.000496708 0.0
0.25 -0.000535485 0.0
0.240138 -0.000505573 0.0
0.247576 -0.000557703 0.0
0.239861 -0.000505167 0.0
0.227295 -0.000467659 0.0
0.209732 -0.000415903 0.0
0.227721 -0.000490994 0.0
0.210286 -0.000433533 0.0
0 0 0.0
0.0478598 -3.61716e-05 0.0
0.128008 -0.000215707 0.0
0.0904965 -0.000118082 0.0
0.187174 -0.000351871 0.0
0.159624 -0.000275544 0.0
0.0472062 -3.17667e-05 0.0
0.12709 -0.000190303 0.0
0.0895972 -0.000104996 0.0
0 0 0.0
0.187902 -0.000397977 0.0
0.160484 -0.000319285 0.0
0.247421 -0.000564126 0.0
0.249999 -0.000603926 0.0
0.24017 -0.000570527 0.0
0.247593 -0.000627535 0.0
0.227248 -0.000527109 0.0
0.239829 -0.000569431 0.0
0.187099 -0.000395723 0.0
0.20967 -0.000468447 0.0
0.227761 -0.000539455 0.0
0.21035 -0.000487775 0.0
0 0 0.0
0.0479281 -3.96883e-05 0.0
0.128113 -0.000240021 0.0
0.0906063 -0.000132498 0.0
0.126996 -0.000213427 0.0
0.159537 -0.000309468 0.0
0.0471483 -3.52288e-05 0.0
0.0895087 -0.000116757 0.0
0 0 0.0
0.187988 -0.000444833 0.0
0.160585 -0.000356208 0.0
0.247404 -0.000633764 0.0
0.249999 -0.000677167 0.0
0.227805 -0.000592183 0.0
0.240221 -0.000668022 0.0
0.247612 -0.000702852 0.0
0.227204 -0.000577555 0.0
0.239793 -0.000638439 0.0
0.187036 -0.000429459 0.0
0.2096 -0.000524518 0.0
0.210423 -0.000545689 0.0
0 0 0.0
0.0480083 -4.41437e-05 0.0
0.128249 -0.00027017 0.0
0.0907183 -0.000146413 0.0
0.126908 -0.000233263 0.0
0.159439 -0.000344851 0.0
0.047078 -3.91231e-05 0.0
0.0894108 -0.000128929 0.0
0 0 0.0
0.160697 -0.000395385 0.0
0.188109 -0.000507603 0.0
0.247384 -0.000708417 0.0
0.249998 -0.000755791 0.0
0.240255 -0.000729834 0.0
0.227888 -0.000685532 0.0
0.247633 -0.000782743 0.0
0.239752 -0.00071198 0.0
0.227156 -0.000632553 0.0
0.186943 -0.000478049 0.0
0.209521 -0.000584138 0.0
0.210504 -0.00060828 0.0
0 0 0.0
0.0480889 -4.86915e-05 0.0
0.128362 -0.000294681 0.0
0.090842 -0.000161584 0.0
0.126794 -0.000258241 0.0
0.15933 -0.000383061 0.0
0 0 0.0
0.0893014 -0.000142593 0.0
0.0470071 -4.29783e-05 0.0
0.188219 -0.00056484 0.0
0.160823 -0.000438468 0.0
0.227946 -0.000747766 0.0
0.247362 -0.000789341 0.0
0.249998 -0.000840937 0.0
0.247651 -0.00085009 0.0
0.240292 -0.000794451 0.0
0.239706 -0.000791648 0.0
0.22709 -0.000703793 0.0
0.186811 -0.000543571 0.0
0.209433 -0.000649283 0.0
0.210596 -0.000675153 0.0
0 0 0.0
0.0481808 -5.36808e-05 0.0
0.0909647 -0.000176114 0.0
0.128507 -0.000325184 0.0
0.126646 -0.000289305 0.0
0.159208 -0.000424058 0.0
0 0 0.0
0.0469221 -4.7246e-05 0.0
0.0891941 -0.000155176 0.0
0.188311 -0.000609387 0.0
0.160963 -0.000485232 0.0
0.228007 -0.000814573 0.0
0.240363 -0.00091821 0.0
0.247337 -0.000877052 0.0
0.249997 -0.000932652 0.0
0.247671 -0.000920944 0.0
0.239654 -0.00087783 0.0
0.227018 -0.000781041 0.0
0.186723 -0.000586799 0.0
0.209334 -0.000718687 0.0
0.210698 -0.000748364 0.0
0 0 0.0
0.048283 -5.89352e-05 0.0
0.128694 -0.000364968 0.0
0.0911305 -0.000196756 0.0
0.126525 -0.000314393 0.0
0.159072 -0.000468386 0.0
0.0468373 -5.12793e-05 0.0
0 0 0.0
0.0890495 -0.000172093 0.0
0.161119 -0.000536141 0.0
0.188478 -0.000690036 0.0
0.228123 -0.0009337 0.0
0.240422 -0.00101791 0.0
0.247698 -0.00102057 0.0
0.247295 -0.00101514 0.0
0.249996 -0.00103402 0.0
0.239597 -0.000973448 0.0
0.226906 -0.000893886 0.0
0.18656 -0.00066375 0.0
0.209224 -0.00079535 0.0
0.21081 -0.000827475 0.0
0 0 0.0
0.0483945 -6.47039e-05 0.0
0.0912967 -0.000215896 0.0
0.16129 -0.000590152 0.0
0.128847 -0.000395872 0.0
0.126369 -0.000345956 0.0
0.158952 -0.000506434 0.0
0.0467388 -5.65406e-05 0.0
0 0 0.0
0.0889174 -0.000187476 0.0
0.210916 -0.000900798 0.0
0.188593 -0.000744722 0.0
0.240473 -0.00110201 0.0
0.228218 -0.00103439 0.0
0.247744 -0.00117809 0.0
0.249996 -0.00114292 0.0
0.24727 -0.0010973 0.0
0.239533 -0.00107559 0.0
0.226829 -0.000970252 0.0
0.186449 -0.000714439 0.0
0.158754 -0.000569097 0.0
0.209102 -0.000877374 0.0
0 0 0.0
0.0914634 -0.000236159 0.0
0.0485257 -7.20079e-05 0.0
0.161441 -0.000639636 0.0
0.129074 -0.000444215 0.0
0.126196 -0.000380718 0.0
0 0 0.0
0.046631 -6.19883e-05 0.0
0.0887415 -0.000207686 0.0
0.211032 -0.000978486 0.0
0.188798 -0.000843859 0.0
0.240529 -0.00119243 0.0
0.228325 -0.00114307 0.0
0.24777 -0.0012747 0.0
0.249993 -0.00126293 0.0
0.247242 -0.00118745 0.0
0.158607 -0.000612291 0.0
0.208988 -0.000952946 0.0
0.239461 -0.00118614 0.0
0.226744 -0.00105327 0.0
0.186291 -0.000787734 0.0
0 0 0.0
0.048655 -7.86209e-05 0.0
0.0916625 -0.000259785 0.0
0.161648 -0.000704522 0.0
0.129296 -0.00048998 0.0
0.0885638 -0.000227142 0.0
0.125976 -0.000424113 0.0
0 0 0.0
0.0465072 -6.8317e-05 0.0
0.21118 -0.00107958 0.0
0.188985 -0.000931636 0.0
0.240605 -0.00131602 0.0
0.228443 -0.00126228 0.0
0.2478 -0.00137788 0.0
0.249993 -0.00139515 0.0
0.247184 -0.0013671 0.0
0.158408 -0.000672886 0.0
0.239382 -0.00130931 0.0
0.208864 -0.00103231 0.0
0.226593 -0.00120285 0.0
0.186068 -0.000890832 0.0
0 0 0.0
0.0919071 -0.000289319 0.0
0.0488048 -8.6639e-05 0.0
0.161922 -0.000791245 0.0
0.129539 -0.000540327 0.0
0.0883897 -0.000246838 0.0
0.125762 -0.000466622 0.0
0 0 0.0
0.0463766 -7.4966e-05 0.0
0.18919 -0.00102892 0.0
0.211345 -0.00119153 0.0
0.24069 -0.00145364 0.0
0.247842 -0.00151788 0.0
0.228572 -0.00139243 0.0
0.24999 -0.0015367 0.0
0.24714 -0.00151079 0.0
0.239296 -0.0014416 0.0
0.249556 -0.00164662 0.0
0.158187 -0.000739129 0.0
0.226463 -0.00132647 0.0
0.20865 -0.00116994 0.0
0.185919 -0.000956995 0.0
0 0 0.0
0.0921309 -0.000316509 0.0
0.0489805 -9.66654e-05 0.0
0.162127 -0.000856609 0.0
0.129807 -0.000595876 0.0
0.0881787 -0.000270353 0.0
0.125564 -0.000505312 0.0
0 0 0.0
0.0462419 -8.179e-05 0.0
0.189416 -0.00113491 0.0
0.211527 -0.00131477 0.0
0.240779 -0.00160163 0.0
0.228716 -0.00153763 0.0
0.247908 -0.00175056 0.0
0.249168 -0.00164661 0.0
0.243783 -0.00159811 0.0
0.233407 -0.00150085 0.0
0.249986 -0.00178086 0.0
0.157944 -0.000811643 0.0
0.218045 -0.00135851 0.0
0.203244 -0.00122778 0.0
0.185647 -0.00107623 0.0
0 0 0.0
0.0923991 -0.000349304 0.0
0.0491632 -0.000106179 0.0
0.162403 -0.000945412 0.0
0.130104 -0.000658059 0.0
0.12527 -0.000562162 0.0
0.0879464 -0.000296429 0.0
0 0 0.0
0.0460797 -8.92748e-05 0.0
0.189667 -0.00125259 0.0
0.211727 -0.00145068 0.0
0.247956 -0.00192803 0.0
0.228873 -0.00169597 0.0
0.240884 -0.00176744 0.0
0.247059 -0.00175862 0.0
0.239135 -0.00168327 0.0
0.22622 -0.00155592 0.0
0.249979 -0.00196241 0.0
0.157675 -0.000892355 0.0
0.208327 -0.00137729 0.0
0.185402 -0.00118404 0.0
0 0 0.0
0.0493558 -0.00011662 0.0
0.092696 -0.000386551 0.0
0.13038 -0.000715643 0.0
0.189942 -0.00138045 0.0
0.16271 -0.00104354 0.0
0.124986 -0.000616608 0.0
0.0876911 -0.000325041 0.0
0.0459082 -9.77703e-05 0.0
0 0 0.0
0.229016 -0.00183985 0.0
0.211949 -0.00160246 0.0
0.248001 -0.00208134 0.0
0.240994 -0.00195189 0.0
0.226052 -0.00171174 0.0
0.246996 -0.00193672 0.0
0.239016 -0.00185329 0.0
0.249975 -0.00216224 0.0
0.185135 -0.00130025 0.0
0.157319 -0.000996381 0.0
0.208038 -0.00155832 0.0
0 0 0.0
0.0495796 -0.00012966 0.0
0.0930599 -0.000431821 0.0
0.130735 -0.000789538 0.0
0.190166 -0.00148994 0.0
0.163118 -0.00117982 0.0
0.124675 -0.000675228 0.0
0.0873839 -0.000359175 0.0
0.0457224 -0.000106533 0.0
0 0 0.0
0.12433 -0.00074158 0.0
0.229168 -0.00199035 0.0
0.21227 -0.00182625 0.0
0.241167 -0.00224199 0.0
0.248047 -0.00224324 0.0
0.225797 -0.00194613 0.0
0.23889 -0.00203847 0.0
0.24693 -0.00213456 0.0
0.249964 -0.00238229 0.0
0.184839 -0.00142828 0.0
0.156986 -0.00109709 0.0
0.20779 -0.00171683 0.0
0 0 0.0
0.0498269 -0.0001434 0.0
0.0934283 -0.000478452 0.0
0.131128 -0.000873776 0.0
0.190495 -0.00164335 0.0
0.163501 -0.00130594 0.0
0.0455151 -0.000117611 0.0
0.0870715 -0.000394569 0.0
0 0 0.0
0.124014 -0.000800581 0.0
0.229372 -0.0022005 0.0
0.212549 -0.00201879 0.0
0.241307 -0.0024732 0.0
0.248108 -0.00247627 0.0
0.225619 -0.00210731 0.0
0.238751 -0.00224232 0.0
0.249956 -0.00262629 0.0
0.246818 -0.00245547 0.0
0.184595 -0.00152997 0.0
0.156621 -0.00120482 0.0
0.207516 -0.00188588 0.0
0 0 0.0
0.0500988 -0.000158422 0.0
0.0938329 -0.000528985 0.0
0.131629 -0.000980391 0.0
0.190949 -0.00186113 0.0
0.212852 -0.00223376 0.0
0.16392 -0.00144737 0.0
0.0453039 -0.000128006 0.0
0.0867327 -0.000431993 0.0
0 0 0.0
0.123607 -0.000878021 0.0
0.229676 -0.00251171 0.0
0.241426 -0.00268046 0.0
0.248176 -0.00273251 0.0
0.249944 -0.00282788 0.0
0.225432 -0.00227709 0.0
0.238588 -0.00247072 0.0
0.246728 -0.00270402 0.0
0.156218 -0.001324 0.0
0.184246 -0.00168044 0.0
0.207212 -0.00207159 0.0
0 0 0.0
0.0504206 -0.00017757 0.0
0.0942856 -0.000588729 0.0
0.132119 -0.00108988 0.0
0.191255 -0.0020116 0.0
0.213185 -0.00246795 0.0
0.164385 -0.00160468 0.0
0.0450592 -0.000139685 0.0
0.0863598 -0.000473184 0.0
0 0 0.0
0.15587 -0.00142063 0.0
0.0859528 -0.000516268 0.0
0.12309 -0.000974865 0.0
0.229929 -0.00278845 0.0
0.241552 -0.00289461 0.0
0.24828 -0.00315084 0.0
0.249936 -0.00303926 0.0
0.246652 -0.00291574 0.0
0.22518 -0.00250102 0.0
0.238342 -0.00282507 0.0
0.183756 -0.00188546 0.0
0.206931 -0.00224875 0.0
0.230157 -0.00302421 0.0
0 0 0.0
0.0507605 -0.000197823 0.0
0.132661 -0.00121316 0.0
0.094787 -0.000657126 0.0
0.213555 -0.00273739 0.0
0.191806 -0.00228625 0.0
0.164898 -0.00178113 0.0
0.0447799 -0.000152911 0.0
0 0 0.0
0.183431 -0.00202505 0.0
0.155394 -0.00155891 0.0
0.122589 -0.00107044 0.0
0.0444828 -0.000168312 0.0
0.0855032 -0.00056656 0.0
0.241728 -0.00319997 0.0
0.24834 -0.00340406 0.0
0.249913 -0.00335054 0.0
0.249896 -0.00360856 0.0
0.246564 -0.00314047 0.0
0.224896 -0.00275059 0.0
0.23813 -0.00310929 0.0
0.206623 -0.0024289 0.0
0.230393 -0.00328505 0.0
0.0511231 -0.000221283 0.0
0 0 0.0
0.133167 -0.00132763 0.0
0.0953418 -0.000732463 0.0
0.213957 -0.00303494 0.0
0.192177 -0.00247543 0.0
0.165467 -0.00198211 0.0
0 0 0.0
0.182963 -0.0022153 0.0
0.154761 -0.0017368 0.0
0.12213 -0.00115092 0.0
0.0441795 -0.00018309 0.0
0.085014 -0.000619494 0.0
0.241989 -0.00368483 0.0
0.248405 -0.00366949 0.0
0.249871 -0.00387957 0.0
0.246386 -0.00360118 0.0
0.224589 -0.00301857 0.0
0.237906 -0.00341897 0.0
0.206102 -0.00274211 0.0
0.230717 -0.00364222 0.0
0 0 0.0
0.051545 -0.000249421 0.0
0.133821 -0.00148279 0.0
0.0959021 -0.000812544 0.0
0.166094 -0.00220518 0.0
0.214399 -0.00337289 0.0
0.19285 -0.00282171 0.0
0 0 0.0
0 0 0.0
0.182445 -0.00242811 0.0
0.154175 -0.00190425 0.0
0.12154 -0.00126019 0.0
0.084479 -0.000676731 0.0
0.04383 -0.000199139 0.0
0.242196 -0.00407632 0.0
0.248482 -0.00405339 0.0
0.237703 -0.00368628 0.0
0.249834 -0.00427321 0.0
0.246234 -0.00396825 0.0
0.224243 -0.00331659 0.0
0.205648 -0.00300426 0.0
0.242366 -0.00442481 0.0
0.231052 -0.00403985 0.0
0.0520139 -0.000278566 0.0
0.0965826 -0.000906658 0.0
0.134554 -0.00166418 0.0
0.166646 -0.00241418 0.0
0.214885 -0.00374802 0.0
0.193296 -0.00307114 0.0
0 0 0.0
0 0 0.0
0.153669 -0.00203776 0.0
0.181729 -0.00271034 0.0
0.0839535 -0.000729329 0.0
0.120795 -0.00139295 0.0
0.0434471 -0.000218258 0.0
0.248606 -0.00466576 0.0
0.249778 -0.00471189 0.0
0.205153 -0.00328875 0.0
0.237479 -0.00396693 0.0
0.246107 -0.00427689 0.0
0.223716 -0.00375323 0.0
0.242551 -0.00478841 0.0
0.231568 -0.00465125 0.0
0.215407 -0.00417461 0.0
0.0525754 -0.000316273 0.0
0.0973506 -0.00102533 0.0
0.135494 -0.00190629 0.0
0.167402 -0.00269731 0.0
0.194109 -0.00352833 0.0
0 0 0.0
0 0 0.0
0.152836 -0.00225944 0.0
0.181089 -0.00296533 0.0
0.0832557 -0.000801759 0.0
0.120081 -0.00151522 0.0
0.0430132 -0.000236731 0.0
0.245963 -0.00460573 0.0
0.249711 -0.00518328 0.0
0.248678 -0.00515895 0.0
0.204606 -0.00359379 0.0
0.237177 -0.0043553 0.0
0.223275 -0.00412138 0.0
0.180387 -0.00323428 0.0
0.242876 -0.00551484 0.0
0 0 0.0
0.231959 -0.00518249 0.0
0.194833 -0.00396008 0.0
0.21597 -0.00465161 0.0
0.053161 -0.000361203 0.0
0.13628 -0.0021238 0.0
0.0983141 -0.00118968 0.0
0.168409 -0.00312033 0.0
0 0 0.0
0 0 0.0
0 0 0.0
0 0 0.0
0 0 0.0
0.0425851 -0.000254135 0.0
0.119298 -0.00164942 0.0
0.152067 -0.00246277 0.0
0.0826338 -0.00086421 0.0
0.245749 -0.00505162 0.0
0.24962 -0.00570394 0.0
0.248752 -0.00569964 0.0
0.222872 -0.00442839 0.0
0.203998 -0.00392289 0.0
0.236675 -0.00494592 0.0
0.203438 -0.0042185 0.0
0.179816 -0.00344167 0.0
0.243107 -0.00611612 0.0
0.232383 -0.00575967 0.0
0 0 0.0
8.27125e-05 -4.00325e-05 0.0
0 0 0.0
-0.00015622 0.000464759 0.0
0.216582 -0.00520118 0.0
0.195425 -0.00432086 0.0
0.0538925 -0.000421714 0.0
0.137297 -0.00241504 0.0
0.0993135 -0.00137266 0.0
0.169361 -0.00354119 0.0
0 0 0.0
0 0 0.0
0 0 0.0
-9.8653e-05 8.97615e-05 0.0
3.05572e-05 -0.000184356 0.0
0.00013094 -0.000145301 0.0
0 0 0.0
0.0420942 -0.000276196 0.0
0.118585 -0.00176413 0.0
0.151228 -0.00267312 0.0
0.0818111 -0.0009417 0.0
0.24551 -0.00554804 0.0
0.2495 -0.00626925 0.0
0.248808 -0.00628679 0.0
0.222435 -0.00476085 0.0
0.236356 -0.00532567 0.0
0.202825 -0.004522 0.0
0.178777 -0.00380726 0.0
0.243346 -0.00677123 0.0
0.235898 -0.00647113 0.0
0.225582 -0.00604619 0.0
0 0 0.0
0.000198479 -4.45777e-05 0.0
0 0 0.0
0 0 0.0
-0.000598109 0.00145783 0.0
-0.000490835 0.000712415 0.0
0.21238 -0.00553319 0.0
0.196257 -0.00487367 0.0
0.100337 -0.00157488 0.0
0.054671 -0.000501407 0.0
0.138437 -0.00277825 0.0
0.170391 -0.00403656 0.0
0 0 0.0
-7.36952e-05 -0.000162687 0.0
-0.000264573 0.000140941 0.0
5.16267e-05 -0.000195225 0.0
0.000184737 -8.56541e-05 0.0
0 0 0.0
0.0415661 -0.000298107 0.0
0.117679 -0.00190521 0.0
0.150319 -0.00288605 0.0
0.0809943 -0.00101618 0.0
0.245223 -0.00607792 0.0
0.249354 -0.00688031 0.0
0.248844 -0.0069284 0.0
0.221632 -0.00535087 0.0
0.235995 -0.00571291 0.0
0.202037 -0.00490739 0.0
0.149323 -0.00312043 0.0
0.177853 -0.00412357 0.0
0.243528 -0.00733524 0.0
0.233106 -0.00688182 0.0
0.217695 -0.00632633 0.0
0 0 0.0
0.000253565 -2.19951e-06 0.0
0 0 0.0
0 0 0.0
0 0 0.0
0 0 0.0
-0.000799745 0.000809083 0.0
-0.000199525 0.00145995 0.0
-0.00067087 0.00216114 0.0
-0.00150144 0.00299489 0.0
-0.00112682 0.0017494 0.0
0 0 0.0
-0.000108516 0.00306268 0.0
0.197368 -0.00571059 0.0
0.171283 -0.00452048 0.0
0 0 0.0
0.055683 -0.000619056 0.0
0.101631 -0.00186662 0.0
0.139914 -0.0033461 0.0
0 0 0.0
0 0 0.0
-0.000332782 0.000174191 0.0
-9.28247e-05 3.46696e-05 0.0