# vtk DataFile Version 3.0
Mesh NS-CD Problem
ASCII
DATASET UNSTRUCTURED_GRID
POINTS 10839 float
-2 0.3 0.0
-2 0.4 0.0
-2 0.35 0.0
-2 0.45 0.0
-2 0.5 0.0
-2 0.55 0.0
-2 0 0.0
-2 0.05 0.0
-2 0.85 0.0
-2 0.9 0.0
-2 0.1 0.0
-2 0.15 0.0
-2 0.25 0.0
-2 0.2 0.0
-1.96653 0.266667 0.0
-1.96524 0.415385 0.0
-1.96485 0.315 0.0
-1.96348 0.363636 0.0
-1.96414 0.464286 0.0
-2 0.6 0.0
-1.96538 0.584615 0.0
-1.96538 0.538462 0.0
-1.94979 0 0.0
-1.96653 0.0666666 0.0
-1.93306 0.0333333 0.0
-2 0.8 0.0
-2 0.75 0.0
-2 0.7 0.0
-2 0.65 0.0
-1.96249 0.7375 0.0
-1.96666 0.833333 0.0
-2 1 0.0
-2 0.95 0.0
-1.96249 0.8875 0.0
-1.96666 0.933333 0.0
-1.96234 0.1125 0.0
-1.96653 0.166667 0.0
-1.93724 0.225 0.0
-1.92971 0.28 0.0
-1.93048 0.380769 0.0
-1.93048 0.423077 0.0
-1.89958 0.3375 0.0
-1.9292 0.484203 0.0
-1.92117 0.530907 0.0
-1.96363 0.636364 0.0
-1.93076 0.576923 0.0
-1.89958 0 0.0
-1.88703 0.0375 0.0
-1.90963 0.08 0.0
-1.86611 0.0666666 0.0
-1.93749 0.775 0.0
-1.93635 0.672727 0.0
-1.92999 0.72 0.0
-1.93332 0.866667 0.0
-1.92856 0.821429 0.0
-1.94999 1 0.0
-1.92499 0.9625 0.0
-1.92499 0.925 0.0
-1.89998 0.9 0.0
-1.89958 0.125 0.0
-1.92827 0.178571 0.0
-1.89958 0.233333 0.0
-1.89045 0.290909 0.0
-1.86096 0.311538 0.0
-1.89241 0.392857 0.0
-1.89334 0.448489 0.0
-1.85655 0.357143 0.0
-1.89614 0.653846 0.0
-1.89427 0.504121 0.0
-1.8952 0.559753 0.0
-1.89614 0.615385 0.0
-1.84937 0 0.0
-1.83264 0.0333333 0.0
-1.85655 0.107143 0.0
-1.81172 0.075 0.0
-1.89998 0.766667 0.0
-1.89089 0.709091 0.0
-1.87498 0.85 0.0
-1.85998 0.79 0.0
-1.88748 0.8125 0.0
-1.89998 1 0.0
-1.88748 0.9625 0.0
-1.86664 0.933333 0.0
-1.85712 0.892857 0.0
-1.87448 0.15 0.0
-1.86611 0.194444 0.0
-1.83264 0.133333 0.0
-1.83264 0.2625 0.0
-1.82068 0.321429 0.0
-1.85664 0.404762 0.0
-1.85674 0.452381 0.0
-1.85683 0.5 0.0
-1.81184 0.375 0.0
-1.85712 0.642857 0.0
-1.85693 0.547619 0.0
-1.85702 0.595238 0.0
-1.79917 0 0.0
-1.78482 0.0357143 0.0
-1.79917 0.116667 0.0
-1.76569 0.0666666 0.0
-1.85452 0.745455 0.0
-1.82689 0.692308 0.0
-1.81815 0.781818 0.0
-1.82497 0.825 0.0
-1.84997 1 0.0
-1.8333 0.958333 0.0
-1.81247 0.8875 0.0
-1.81247 0.925 0.0
-1.81742 0.218182 0.0
-1.82427 0.175 0.0
-1.77634 0.145455 0.0
-1.79144 0.242308 0.0
-1.78482 0.285714 0.0
-1.77469 0.332653 0.0
-1.81215 0.529762 0.0
-1.81194 0.422619 0.0
-1.81203 0.470238 0.0
-1.76714 0.392857 0.0
-1.81234 0.625 0.0
-1.79732 0.571429 0.0
-1.74896 0 0.0
-1.73222 0.0333333 0.0
-1.75398 0.105 0.0
-1.71883 0.07 0.0
-1.79227 0.730769 0.0
-1.78007 0.679121 0.0
-1.75765 0.769231 0.0
-1.78178 0.818182 0.0
-1.78996 0.86 0.0
-1.79996 1 0.0
-1.78568 0.964286 0.0
-1.76663 0.922222 0.0
-1.76569 0.1875 0.0
-1.73222 0.15 0.0
-1.74896 0.25 0.0
-1.73714 0.304762 0.0
-1.76743 0.537202 0.0
-1.72869 0.343878 0.0
-1.76732 0.485119 0.0
-1.76723 0.440476 0.0
-1.72243 0.410714 0.0
-1.76757 0.607143 0.0
-1.69875 0 0.0
-1.68369 0.035 0.0
-1.69875 0.1125 0.0
-1.66528 0.075 0.0
-1.74341 0.708974 0.0
-1.73324 0.665934 0.0
-1.70441 0.74478 0.0
-1.71423 0.785714 0.0
-1.72303 0.826923 0.0
-1.74541 0.854545 0.0
-1.74541 0.890909 0.0
-1.74996 1 0.0
-1.73745 0.9625 0.0
-1.71359 0.927273 0.0
-1.68716 0.153846 0.0
-1.7131 0.214286 0.0
-1.70725 0.275 0.0
-1.69712 0.321939 0.0
-1.72279 0.589286 0.0
-1.72261 0.5 0.0
-1.7227 0.544643 0.0
-1.6827 0.355102 0.0
-1.67773 0.428571 0.0
-1.70763 0.464286 0.0
-1.70369 0.62449 0.0
-1.64854 0 0.0
-1.63181 0.0375 0.0
-1.64137 0.142857 0.0
-1.61764 0.0769231 0.0
-1.69458 0.703846 0.0
-1.67471 0.657437 0.0
-1.66143 0.727637 0.0
-1.67125 0.768571 0.0
-1.67851 0.821429 0.0
-1.68841 0.861538 0.0
-1.70904 0.890909 0.0
-1.69995 1 0.0
-1.68176 0.963636 0.0
-1.67267 0.927273 0.0
-1.65427 0.187143 0.0
-1.66718 0.231429 0.0
-1.66554 0.3 0.0
-1.67802 0.571429 0.0
-1.67792 0.523809 0.0
-1.6367 0.366327 0.0
-1.63682 0.423469 0.0
-1.62568 0.502976 0.0
-1.6629 0.470238 0.0
-1.65254 0.618367 0.0
-1.6059 0.307143 0.0
-1.59833 0 0.0
-1.58288 0.0384615 0.0
-1.60563 0.169643 0.0
-1.58179 0.112271 0.0
-1.56964 0.0714286 0.0
-1.64574 0.690385 0.0
-1.62827 0.751429 0.0
-1.63371 0.791071 0.0
-1.64279 0.857143 0.0
-1.65378 0.896154 0.0
-1.64994 1 0.0
-1.6363 0.963636 0.0
-1.61916 0.930769 0.0
-1.61345 0.209107 0.0
-1.62126 0.248571 0.0
-1.56989 0.196429 0.0
-1.63324 0.553571 0.0
-1.58846 0.535714 0.0
-1.59408 0.361905 0.0
-1.59161 0.402211 0.0
-1.58832 0.464286 0.0
-1.61504 0.598581 0.0
-1.59683 0.64359 0.0
-1.57899 0.274107 0.0
-1.56176 0.322381 0.0
-1.54812 0 0.0
-1.53378 0.0357143 0.0
-1.54593 0.147619 0.0
-1.53385 0.0732143 0.0
-1.53393 0.110714 0.0
-1.58522 0.704286 0.0
-1.58709 0.745 0.0
-1.58896 0.785714 0.0
-1.60695 0.830357 0.0
-1.60707 0.892857 0.0
-1.59993 1 0.0
-1.58454 0.965385 0.0
-1.57135 0.928571 0.0
-1.55209 0.241071 0.0
-1.5291 0.198214 0.0
-1.56936 0.570918 0.0
-1.54369 0.517857 0.0
-1.5464 0.380952 0.0
-1.54564 0.427721 0.0
-1.54488 0.47449 0.0
-1.55026 0.606122 0.0
-1.54222 0.677143 0.0
-1.52943 0.282857 0.0
-1.52143 0.33619 0.0
-1.49792 0 0.0
-1.49802 0.05 0.0
-1.49822 0.15 0.0
-1.49312 0.1 0.0
-1.5423 0.717143 0.0
-1.54419 0.767857 0.0
-1.54727 0.819048 0.0
-1.57122 0.861905 0.0
-1.53553 0.914286 0.0
-1.54992 1 0.0
-1.53563 0.964286 0.0
-1.49842 0.25 0.0
-1.48831 0.2 0.0
-1.5214 0.558929 0.0
-1.49891 0.5 0.0
-1.49871 0.4 0.0
-1.47631 0.45 0.0
-1.49911 0.6 0.0
-1.49921 0.65 0.0
-1.49931 0.7 0.0
-1.48111 0.35 0.0
-1.48351 0.3 0.0
-1.44771 0 0.0
-1.44782 0.05 0.0
-1.44804 0.15 0.0
-1.44793 0.1 0.0
-1.49941 0.75 0.0
-1.49951 0.8 0.0
-1.49981 0.95 0.0
-1.49961 0.85 0.0
-1.49971 0.9 0.0
-1.49991 1 0.0
-1.44826 0.25 0.0
-1.43815 0.2 0.0
-1.47151 0.55 0.0
-1.44881 0.5 0.0
-1.44859 0.4 0.0
-1.42619 0.45 0.0
-1.44913 0.65 0.0
-1.44902 0.6 0.0
-1.44935 0.75 0.0
-1.44924 0.7 0.0
-1.43972 0.35 0.0
-1.43336 0.3 0.0
-1.3975 0 0.0
-1.39762 0.05 0.0
-1.39786 0.15 0.0
-1.39274 0.1 0.0
-1.44957 0.85 0.0
-1.44946 0.8 0.0
-1.4523 0.95 0.0
-1.44968 0.9 0.0
-1.4499 1 0.0
-1.3981 0.25 0.0
-1.38798 0.2 0.0
-1.42141 0.55 0.0
-1.3987 0.5 0.0
-1.39834 0.35 0.0
-1.37845 0.4 0.0
-1.37607 0.45 0.0
-1.40784 0.65 0.0
-1.39894 0.6 0.0
-1.41185 0.75 0.0
-1.39918 0.7 0.0
-1.38322 0.3 0.0
-1.34729 0 0.0
-1.34492 0.05 0.0
-1.34018 0.15 0.0
-1.34255 0.1 0.0
-1.40707 0.85 0.0
-1.39941 0.8 0.0
-1.39977 0.95 0.0
-1.39965 0.9 0.0
-1.39989 1 0.0
-1.33781 0.2 0.0
-1.33544 0.25 0.0
-1.37131 0.55 0.0
-1.34859 0.5 0.0
-1.33833 0.4 0.0
-1.3307 0.35 0.0
-1.32595 0.45 0.0
-1.34885 0.6 0.0
-1.36655 0.65 0.0
-1.36179 0.75 0.0
-1.34911 0.7 0.0
-1.33307 0.3 0.0
-1.29708 0 0.0
-1.29722 0.05 0.0
-1.2975 0.15 0.0
-1.29236 0.1 0.0
-1.35703 0.85 0.0
-1.34937 0.8 0.0
-1.34988 1 0.0
-1.34962 0.9 0.0
-1.35226 0.95 0.0
-1.28528 0.25 0.0
-1.28764 0.2 0.0
-1.28931 0.35 0.0
-1.32121 0.55 0.0
-1.29848 0.5 0.0
-1.28709 0.45 0.0
-1.2982 0.4 0.0
-1.29876 0.6 0.0
-1.31647 0.65 0.0
-1.29918 0.75 0.0
-1.29904 0.7 0.0
-1.28292 0.3 0.0
-1.24687 0 0.0
-1.24702 0.05 0.0
-1.24717 0.1 0.0
-1.24732 0.15 0.0
-1.29946 0.85 0.0
-1.29932 0.8 0.0
-1.29987 1 0.0
-1.29974 0.95 0.0
-1.30462 0.9 0.0
-1.24762 0.25 0.0
-1.23747 0.2 0.0
-1.24792 0.35 0.0
-1.22807 0.4 0.0
-1.27111 0.55 0.0
-1.24837 0.5 0.0
-1.24822 0.45 0.0
-1.24867 0.6 0.0
-1.26639 0.65 0.0
-1.26167 0.75 0.0
-1.24897 0.7 0.0
-1.23277 0.3 0.0
-1.19667 0 0.0
-1.19683 0.05 0.0
-1.18964 0.15 0.0
-1.19198 0.1 0.0
-1.25695 0.85 0.0
-1.24927 0.8 0.0
-1.25223 0.95 0.0
-1.24987 1 0.0
-1.24957 0.9 0.0
-1.1873 0.2 0.0
-1.18496 0.25 0.0
-1.18028 0.35 0.0
-1.17794 0.4 0.0
-1.1981 0.45 0.0
-1.19842 0.55 0.0
-1.19826 0.5 0.0
-1.19858 0.6 0.0
-1.19874 0.65 0.0
-1.19906 0.75 0.0
-1.1989 0.7 0.0
-1.18262 0.3 0.0
-1.14646 0 0.0
-1.14663 0.05 0.0
-1.1418 0.1 0.0
-1.13713 0.2 0.0
-1.14697 0.15 0.0
-1.20691 0.85 0.0
-1.20926 0.8 0.0
-1.20221 0.95 0.0
-1.19986 1 0.0
-1.20456 0.9 0.0
-1.13997 0.3 0.0
-1.14731 0.25 0.0
-1.13781 0.4 0.0
-1.13014 0.35 0.0
-1.12548 0.45 0.0
-1.14815 0.5 0.0
-1.15962 0.55 0.0
-1.14849 0.6 0.0
-1.15745 0.65 0.0
-1.16155 0.75 0.0
-1.14917 0.8 0.0
-1.14883 0.7 0.0
-1.09625 0 0.0
-1.09661 0.1 0.0
-1.09393 0.05 0.0
-1.09697 0.2 0.0
-1.08929 0.15 0.0
-1.15687 0.85 0.0
-1.14985 1 0.0
-1.15219 0.95 0.0
-1.14951 0.9 0.0
-1.09733 0.3 0.0
-1.08465 0.25 0.0
-1.09769 0.4 0.0
-1.08 0.35 0.0
-1.08661 0.45 0.0
-1.09804 0.5 0.0
-1.12082 0.55 0.0
-1.10916 0.8 0.0
-1.10629 0.7 0.0
-1.0984 0.6 0.0
-1.11616 0.65 0.0
-1.11149 0.75 0.0
-1.04604 0 0.0
-1.04623 0.05 0.0
-1.04642 0.1 0.0
-1.0468 0.2 0.0
-1.03911 0.15 0.0
-1.09948 0.9 0.0
-1.0993 0.85 0.0
-1.09984 1 0.0
-1.09966 0.95 0.0
-1.04718 0.3 0.0
-1.03449 0.25 0.0
-1.04756 0.4 0.0
-1.02986 0.35 0.0
-1.04775 0.45 0.0
-1.04794 0.5 0.0
-1.04813 0.55 0.0
-1.05911 0.8 0.0
-1.04831 0.6 0.0
-1.06376 0.7 0.0
-1.0485 0.65 0.0
-1.04888 0.75 0.0
-0.995833 0 0.0
-0.991231 0.1 0.0
-0.996033 0.05 0.0
-0.986629 0.2 0.0
-0.98893 0.15 0.0
-1.05447 0.9 0.0
-1.04926 0.85 0.0
-1.04983 1 0.0
-1.04964 0.95 0.0
-0.984328 0.25 0.0
-0.99703 0.3 0.0
-0.997429 0.4 0.0
-0.997628 0.45 0.0
-0.979726 0.35 0.0
-0.997827 0.5 0.0
-0.998027 0.55 0.0
-0.998226 0.6 0.0
-0.961416 0.475 0.0
-1.00907 0.8 0.0
-0.998426 0.65 0.0
-0.998625 0.7 0.0
-1.01138 0.75 0.0
-0.945625 0 0.0
-0.946044 0.1 0.0
-0.943334 0.05 0.0
-0.946463 0.2 0.0
-0.938752 0.15 0.0
-1.00444 0.9 0.0
-1.00675 0.85 0.0
-0.999821 1 0.0
-1.00213 0.95 0.0
-0.93417 0.25 0.0
-0.946881 0.3 0.0
-0.9473 0.4 0.0
-0.929588 0.35 0.0
-0.925005 0.45 0.0
-0.960371 0.525 0.0
-0.959325 0.575 0.0
-0.958279 0.625 0.0
-0.922714 0.5 0.0
-0.959017 0.8 0.0
-0.957233 0.675 0.0
-0.952999 0.7125 0.0
-0.948766 0.75 0.0
-0.895417 0 0.0
-0.895855 0.1 0.0
-0.893136 0.05 0.0
-0.896294 0.2 0.0
-0.888573 0.15 0.0
-0.949184 0.85 0.0
-0.954415 0.9 0.0
-0.949812 1 0.0
-0.949603 0.95 0.0
-0.884011 0.25 0.0
-0.896733 0.3 0.0
-0.874887 0.45 0.0
-0.879449 0.35 0.0
-0.897171 0.4 0.0
-0.920423 0.55 0.0
-0.918132 0.6 0.0
-0.915841 0.65 0.0
-0.872606 0.5 0.0
-0.908968 0.8 0.0
-0.91355 0.7 0.0
-0.898707 0.75 0.0
-0.845208 0 0.0
-0.845438 0.05 0.0
-0.845667 0.1 0.0
-0.845896 0.15 0.0
-0.833853 0.25 0.0
-0.846126 0.2 0.0
-0.899146 0.85 0.0
-0.904386 0.9 0.0
-0.899584 0.95 0.0
-0.899804 1 0.0
-0.838062 0.35 0.0
[...]
POINT_DATA 10839
VECTORS Velocity float
0.21 0 0.0
0.24 0 0.0
0.2275 0 0.0
0.2475 0 0.0
0.25 0 0.0
0.2475 0 0.0
0 0 0.0
0.0475 0 0.0
0.1275 0 0.0
0.09 0 0.0
0.09 0 0.0
0.1275 0 0.0
0.1875 0 0.0
0.16 0 0.0
0.195557 -2.43068e-05 0.0
0.242841 -3.30878e-05 0.0
0.215776 -2.89025e-05 0.0
0.231406 -3.25601e-05 0.0
0.248725 -3.52191e-05 0.0
0.24 0 0.0
0.24284 -3.30127e-05 0.0
0.24852 -3.39187e-05 0.0
0 0 0.0
0.062224 -4.28084e-06 0.0
0.0322271 -2.83089e-06 0.0
0.16 0 0.0
0.1875 0 0.0
0.21 0 0.0
0.2275 0 0.0
0.193592 -2.72811e-05 0.0
0.138887 -1.52007e-05 0.0
0 0 0.0
0.0475 0 0.0
0.0998415 -1.0589e-05 0.0
0.0622205 -4.32953e-06 0.0
0.0998462 -1.10611e-05 0.0
0.138891 -1.5333e-05 0.0
0.17438 -3.83087e-05 0.0
0.201606 -5.23967e-05 0.0
0.235787 -6.38887e-05 0.0
0.244085 -6.68301e-05 0.0
0.223602 -8.55982e-05 0.0
0.249751 -6.98069e-05 0.0
0.249044 -7.77657e-05 0.0
0.231404 -3.30841e-05 0.0
0.244081 -6.60399e-05 0.0
0 0 0.0
0.0361084 -5.45837e-06 0.0
0.0736129 -1.52256e-05 0.0
0.0622495 -1.66681e-05 0.0
0.17437 -3.77503e-05 0.0
0.220162 -5.23516e-05 0.0
0.201594 -5.24726e-05 0.0
0.115548 -2.27112e-05 0.0
0.146676 -3.51102e-05 0.0
0 0 0.0
0.0360873 -3.68611e-06 0.0
0.0693659 -1.19236e-05 0.0
0.0899833 -2.3594e-05 0.0
0.109391 -3.18646e-05 0.0
0.146692 -3.44262e-05 0.0
0.178902 -6.41373e-05 0.0
0.206293 -8.37517e-05 0.0
0.214501 -0.000112727 0.0
0.238527 -0.000100023 0.0
0.24735 -0.000104128 0.0
0.229607 -0.00012721 0.0
0.226323 -8.99194e-05 0.0
0.249983 -0.000104636 0.0
0.246426 -0.000101811 0.0
0.23668 -9.58879e-05 0.0
0 0 0.0
0.032251 -6.162e-06 0.0
0.0956969 -3.61537e-05 0.0
0.0694299 -2.7245e-05 0.0
0.178876 -6.31648e-05 0.0
0.206269 -8.43802e-05 0.0
0.127476 -4.8768e-05 0.0
0.165873 -7.98657e-05 0.0
0.152325 -5.72863e-05 0.0
0 0 0.0
0.0360793 -5.28826e-06 0.0
0.0621954 -1.64984e-05 0.0
0.0956296 -3.68532e-05 0.0
0.127525 -4.92301e-05 0.0
0.156661 -7.14063e-05 0.0
0.115601 -5.64675e-05 0.0
0.193626 -0.000117485 0.0
0.218141 -0.000148521 0.0
0.24094 -0.0001355 0.0
0.247737 -0.000140497 0.0
0.25 -0.000142021 0.0
0.234398 -0.000171824 0.0
0.229577 -0.000125447 0.0
0.247727 -0.000140184 0.0
0.240919 -0.000135253 0.0
0 0 0.0
0.0344879 -8.52074e-06 0.0
0.103121 -5.54477e-05 0.0
0.0623038 -2.7585e-05 0.0
0.189727 -9.99281e-05 0.0
0.212989 -0.000139355 0.0
0.170534 -0.000108157 0.0
0.144329 -8.03613e-05 0.0
0 0 0.0
0.0398976 -9.08441e-06 0.0
0.0997858 -5.0461e-05 0.0
0.0693206 -2.68152e-05 0.0
0.170624 -0.000108275 0.0
0.144421 -8.20979e-05 0.0
0.124377 -8.31822e-05 0.0
0.18365 -0.000136717 0.0
0.204132 -0.00016357 0.0
0.222038 -0.000192461 0.0
0.249109 -0.000186231 0.0
0.244026 -0.000181298 0.0
0.24912 -0.000186246 0.0
0.238551 -0.000218477 0.0
0.234353 -0.000170797 0.0
0.244883 -0.000196249 0.0
0 0 0.0
0.0322928 -9.01762e-06 0.0
0.0940748 -5.82466e-05 0.0
0.0652182 -3.48539e-05 0.0
0.196696 -0.000149437 0.0
0.217871 -0.000183436 0.0
0.177438 -0.000151599 0.0
0.14869 -0.000105964 0.0
0.120329 -7.4291e-05 0.0
0 0 0.0
0.0343901 -8.61384e-06 0.0
0.0716435 -3.50152e-05 0.0
0.152424 -0.000118763 0.0
0.127615 -0.00010316 0.0
0.187578 -0.000169331 0.0
0.211951 -0.000210752 0.0
0.248605 -0.000230911 0.0
0.225685 -0.000238664 0.0
0.249783 -0.000232591 0.0
0.246474 -0.000228695 0.0
0.242064 -0.000267361 0.0
0.23849 -0.000217833 0.0
0 0 0.0
0.0338753 -1.12919e-05 0.0
0.0999936 -7.76714e-05 0.0
0.069546 -4.63615e-05 0.0
0.20626 -0.000197323 0.0
0.222405 -0.000229879 0.0
0.189975 -0.000204896 0.0
0.168253 -0.00016563 0.0
0.143003 -0.000127196 0.0
0.124193 -9.39992e-05 0.0
0.0970834 -6.32338e-05 0.0
0 0 0.0
0.03602 -1.0959e-05 0.0
0.067314 -3.75041e-05 0.0
0.130335 -0.000124524 0.0
0.168482 -0.000166436 0.0
0.199473 -0.000216967 0.0
0.218378 -0.000254479 0.0
0.241992 -0.000267959 0.0
0.25 -0.000279701 0.0
0.247989 -0.000276435 0.0
0.229081 -0.000286997 0.0
0.244937 -0.000318026 0.0
0.248741 -0.000293419 0.0
0.234445 -0.000274435 0.0
0 0 0.0
0.0362338 -1.45466e-05 0.0
0.122659 -0.000127473 0.0
0.0712302 -5.47976e-05 0.0
0.20835 -0.000241012 0.0
0.225126 -0.000286598 0.0
0.198048 -0.000250059 0.0
0.177725 -0.000207234 0.0
0.146525 -0.000153012 0.0
0.119132 -0.000107072 0.0
0.0970505 -7.16792e-05 0.0
0 0 0.0
0.0349376 -1.22669e-05 0.0
0.0672766 -4.2204e-05 0.0
0.152301 -0.000173814 0.0
0.178017 -0.000212183 0.0
0.210116 -0.000268254 0.0
0.244858 -0.000317854 0.0
0.24942 -0.000326542 0.0
0.232225 -0.000337242 0.0
0.244197 -0.000361516 0.0
0.249988 -0.000385644 0.0
0.249132 -0.000343032 0.0
0.235913 -0.000328239 0.0
0.212963 -0.000327155 0.0
0 0 0.0
0.0371628 -1.71282e-05 0.0
0.14111 -0.00017723 0.0
0.0999581 -0.000107343 0.0
0.0666008 -5.34002e-05 0.0
0.213629 -0.000292842 0.0
0.186607 -0.000254977 0.0
0.165084 -0.000207652 0.0
0.12224 -0.000128258 0.0
0.0928652 -7.85684e-05 0.0
0 0 0.0
0.0349077 -1.36931e-05 0.0
0.0642253 -4.48132e-05 0.0
0.165597 -0.000221957 0.0
0.186968 -0.000260783 0.0
0.158124 -0.000232085 0.0
0.247091 -0.000371074 0.0
0.248691 -0.000426074 0.0
0.231052 -0.000378403 0.0
0.240526 -0.000403731 0.0
0.248757 -0.000425815 0.0
0.240203 -0.000377276 0.0
0.229256 -0.000370505 0.0
0.199182 -0.000320195 0.0
0.218634 -0.000382431 0.0
0 0 0.0
0.0346507 -1.68075e-05 0.0
0.12617 -0.00017218 0.0
0.0681793 -6.03137e-05 0.0
0.09882 -0.000116842 0.0
0.208083 -0.000334437 0.0
0.18976 -0.000291755 0.0
0.168126 -0.000242348 0.0
0.140619 -0.000175889 0.0
0.0954081 -9.33804e-05 0.0
0 0 0.0
0.0332515 -1.4012e-05 0.0
0.0660545 -5.3333e-05 0.0
0.183223 -0.000302468 0.0
0.159262 -0.000259569 0.0
0.244898 -0.000439045 0.0
0.24966 -0.000481727 0.0
0.235961 -0.00044234 0.0
0.244858 -0.000467406 0.0
0.249378 -0.00048074 0.0
0.23862 -0.000444319 0.0
0.218421 -0.000401582 0.0
0.203104 -0.000373212 0.0
0.22337 -0.000436932 0.0
0 0 0.0
0.0478076 -3.34927e-05 0.0
0.127921 -0.000196176 0.0
0.0904244 -0.00010976 0.0
0.202608 -0.00035914 0.0
0.177967 -0.000295638 0.0
0.147888 -0.000222254 0.0
0.118719 -0.000146093 0.0
0.0780259 -7.84864e-05 0.0
0 0 0.0
0.0342294 -1.65049e-05 0.0
0.187831 -0.00035781 0.0
0.1604 -0.000288671 0.0
0.246452 -0.000501133 0.0
0.249999 -0.000539857 0.0
0.240139 -0.0005102 0.0
0.247576 -0.000562005 0.0
0.23986 -0.000509115 0.0
0.227292 -0.000471369 0.0
0.20973 -0.000419518 0.0
0.227723 -0.000495558 0.0
0.210289 -0.000437856 0.0
0 0 0.0
0.0478712 -3.7373e-05 0.0
0.128015 -0.000218877 0.0
0.0905062 -0.000120651 0.0
0.187171 -0.000355397 0.0
0.159619 -0.000278991 0.0
0.047196 -3.29037e-05 0.0
0.127084 -0.000193491 0.0
0.0895884 -0.000107604 0.0
0 0 0.0
0.187907 -0.000401895 0.0
0.16049 -0.000322959 0.0
0.24742 -0.000567881 0.0
0.249998 -0.000607707 0.0
0.240171 -0.000574874 0.0
0.247593 -0.000631453 0.0
0.227246 -0.00053005 0.0
0.239827 -0.000572613 0.0
0.187096 -0.000398799 0.0
0.209668 -0.000471422 0.0
0.227763 -0.000543785 0.0
0.210354 -0.000492043 0.0
0 0 0.0
0.047941 -4.0919e-05 0.0
0.12812 -0.000243251 0.0
0.0906171 -0.000135204 0.0
0.12699 -0.000216776 0.0
0.159533 -0.000312798 0.0
0.0471365 -3.65096e-05 0.0
0.089499 -0.000119605 0.0
0 0 0.0
0.187993 -0.000448776 0.0
0.160591 -0.000359965 0.0
0.247402 -0.000636742 0.0
0.249998 -0.000680362 0.0
0.227807 -0.000596451 0.0
0.240221 -0.000672133 0.0
0.247611 -0.000706567 0.0
0.227201 -0.00057968 0.0
0.239791 -0.00064075 0.0
0.187033 -0.000432159 0.0
0.209597 -0.000526826 0.0
0.210427 -0.000550125 0.0
0 0 0.0
0.0480231 -4.54011e-05 0.0
0.128257 -0.000273413 0.0
0.0907301 -0.000149117 0.0
0.126902 -0.000236784 0.0
0.159435 -0.000348163 0.0
0.0470641 -4.0621e-05 0.0
0.0893999 -0.000132158 0.0
0 0 0.0
0.160704 -0.000399339 0.0
0.188114 -0.000511842 0.0
0.247382 -0.000710584 0.0
0.249997 -0.000758483 0.0
0.240255 -0.000734271 0.0
0.22789 -0.000690294 0.0
0.247631 -0.000786426 0.0
0.239749 -0.000713266 0.0
0.227153 -0.000633893 0.0
0.186941 -0.000480316 0.0
0.209519 -0.000585615 0.0
0.210508 -0.000613367 0.0
0 0 0.0
0.0481056 -4.99568e-05 0.0
0.128371 -0.000297932 0.0
0.0908546 -0.000164111 0.0
0.126788 -0.000262252 0.0
0.159327 -0.00038652 0.0
0 0 0.0
0.0892893 -0.000146526 0.0
0.046991 -4.47696e-05 0.0
0.188225 -0.000570065 0.0
0.16083 -0.000442795 0.0
0.227948 -0.00075355 0.0
0.247359 -0.000790728 0.0
0.249995 -0.000843349 0.0
0.247648 -0.000854136 0.0
0.240291 -0.000799554 0.0
0.239703 -0.000791799 0.0
0.227088 -0.000703999 0.0
0.186811 -0.000545237 0.0
0.209431 -0.000649865 0.0
0.2106 -0.000681419 0.0
0 0 0.0
0.0481987 -5.47141e-05 0.0
0.0909781 -0.000178192 0.0
0.128516 -0.000328285 0.0
0.126641 -0.000294402 0.0
0.159206 -0.000427968 0.0
0 0 0.0
0.046903 -4.95394e-05 0.0
0.0891808 -0.000160046 0.0
0.188318 -0.000615745 0.0
0.160972 -0.000490365 0.0
0.228008 -0.000822007 0.0
0.240361 -0.000925842 0.0
0.247332 -0.000877696 0.0
0.249992 -0.00093501 0.0
0.247667 -0.000925713 0.0
0.23965 -0.000876626 0.0
0.227015 -0.000779855 0.0
0.186723 -0.000588225 0.0
0.209334 -0.000718019 0.0
0.210702 -0.000756961 0.0
0 0 0.0
0.0483017 -5.957e-05 0.0
0.128706 -0.000367834 0.0
0.0911448 -0.000197885 0.0
0.12652 -0.000320906 0.0
0.159072 -0.000473001 0.0
0.0468146 -5.42822e-05 0.0
0 0 0.0
0.0890344 -0.000178851 0.0
0.16113 -0.00054272 0.0
0.188488 -0.000699576 0.0
0.228124 -0.000946011 0.0
0.240418 -0.00102921 0.0
0.247691 -0.00102728 0.0
0.247288 -0.00101439 0.0
0.249989 -0.00103697 0.0
0.239591 -0.0009706 0.0
0.226904 -0.00088982 0.0
0.186565 -0.000664338 0.0
0.209226 -0.000792955 0.0
0.210816 -0.000840083 0.0
0 0 0.0
0.0484129 -6.45026e-05 0.0
0.0913122 -0.000215571 0.0
0.161306 -0.000598976 0.0
0.128862 -0.000398628 0.0
0.126366 -0.00035485 0.0
0.158956 -0.000511912 0.0
0.0467106 -6.07838e-05 0.0
0 0 0.0
0.0889 -0.00019664 0.0
0.210923 -0.000918452 0.0
0.188605 -0.000757931 0.0
0.240466 -0.00111767 0.0
0.228218 -0.00105383 0.0
0.247731 -0.00118935 0.0
0.249983 -0.00114681 0.0
0.247259 -0.00109585 0.0
0.239525 -0.0010702 0.0
0.226827 -0.000963671 0.0
0.186458 -0.000714196 0.0
0.158765 -0.000575886 0.0
0.209107 -0.000872083 0.0
0 0 0.0
0.0914801 -0.00023448 0.0
0.048543 -7.06982e-05 0.0
0.161464 -0.000651969 0.0
0.129096 -0.00044803 0.0
0.126196 -0.000392767 0.0
0 0 0.0
0.0465952 -6.79276e-05 0.0
0.0887204 -0.000220875 0.0
0.211041 -0.00100354 0.0
0.188817 -0.000867035 0.0
0.240518 -0.00121383 0.0
0.228323 -0.00117293 0.0
0.247751 -0.00129065 0.0
0.249973 -0.00126864 0.0
0.247228 -0.00118532 0.0
0.158625 -0.000619408 0.0
0.208996 -0.000943711 0.0
0.239449 -0.00117699 0.0
0.226742 -0.00104315 0.0
0.186306 -0.000785311 0.0
0 0 0.0
0.0486701 -7.62834e-05 0.0
0.0916822 -0.000257225 0.0
0.161682 -0.000724153 0.0
0.129329 -0.000496808 0.0
0.0885382 -0.000244854 0.0
0.125981 -0.000440348 0.0
0 0 0.0
0.0464605 -7.65401e-05 0.0
0.211192 -0.00111806 0.0
0.189014 -0.000968022 0.0
0.240587 -0.00134818 0.0
0.228437 -0.00130753 0.0
0.247773 -0.00139988 0.0
0.249962 -0.00140351 0.0
0.247157 -0.0013621 0.0
0.158438 -0.000679173 0.0
0.239365 -0.00129451 0.0
0.208876 -0.00101706 0.0
0.22659 -0.00118297 0.0
0.186096 -0.000882212 0.0
0 0 0.0
0.0919331 -0.000287736 0.0
0.0488153 -8.37323e-05 0.0
0.161977 -0.000826885 0.0
0.129588 -0.000554281 0.0
0.0883599 -0.0002687 0.0
0.125776 -0.000486317 0.0
0 0 0.0
0.0463155 -8.60115e-05 0.0
0.189231 -0.0010859 0.0
0.211361 -0.00125039 0.0
0.240661 -0.00150205 0.0
0.247799 -0.00154994 0.0
0.228561 -0.00145969 0.0
0.249942 -0.00154861 0.0
0.247098 -0.00150312 0.0
0.239268 -0.00141857 0.0
0.249493 -0.00167571 0.0
0.158234 -0.000741402 0.0
0.226457 -0.00129463 0.0
0.208671 -0.00113955 0.0
0.185958 -0.000941151 0.0
0 0 0.0
0.0921669 -0.000318965 0.0
0.0489885 -9.34489e-05 0.0
0.162203 -0.000910276 0.0
0.129881 -0.000623574 0.0
0.0881442 -0.000296372 0.0
0.125587 -0.00052614 0.0
0 0 0.0
0.0461641 -9.55504e-05 0.0
0.189476 -0.00122251 0.0
0.211547 -0.00140338 0.0
0.240732 -0.00167114 0.0
0.228696 -0.00163676 0.0
0.247828 -0.00180527 0.0
0.249105 -0.00164884 0.0
0.243732 -0.00157564 0.0
0.233381 -0.00146043 0.0
0.249897 -0.00180079 0.0
0.158016 -0.000803975 0.0
0.218052 -0.00131055 0.0
0.203279 -0.00118179 0.0
0.185709 -0.00103995 0.0
0 0 0.0
0.0924554 -0.000361995 0.0
0.0491707 -0.000104228 0.0
0.162512 -0.00103278 0.0
0.130214 -0.000709793 0.0
0.125314 -0.000579257 0.0
0.0879091 -0.000324536 0.0
0 0 0.0
0.0459805 -0.000105282 0.0
0.189748 -0.00138503 0.0
0.211751 -0.00158135 0.0
0.247837 -0.00200364 0.0
0.228838 -0.0018379 0.0
0.240812 -0.0018676 0.0
0.246977 -0.00174378 0.0
0.239077 -0.00163799 0.0
0.226202 -0.00149077 0.0
0.249846 -0.0019895 0.0
0.157778 -0.000865617 0.0
0.208357 -0.0013072 0.0
0.185486 -0.00111972 0.0
0 0 0.0
0.0493708 -0.000118176 0.0
0.092786 -0.00041767 0.0
0.130534 -0.00079907 0.0
0.190049 -0.00157555 0.0
0.162863 -0.00118105 0.0
0.125057 -0.000622188 0.0
0.0876556 -0.000351334 0.0
0.0457865 -0.000115383 0.0
0 0 0.0
0.228962 -0.00202869 0.0
0.211974 -0.0017919 0.0
0.24784 -0.00217816 0.0
0.240884 -0.00209294 0.0
0.226018 -0.0016139 0.0
0.246874 -0.00191385 0.0
0.238928 -0.00178638 0.0
0.249782 -0.002198 0.0
0.185247 -0.0011928 0.0
0.157471 -0.000928424 0.0
0.208075 -0.00143565 0.0
0 0 0.0
0.0496133 -0.000139696 0.0
0.0932137 -0.0004943 0.0
0.130959 -0.000927609 0.0
0.190296 -0.00174816 0.0
0.163339 -0.00140769 0.0
0.124786 -0.00065778 0.0
0.0873621 -0.000375262 0.0
0.0455811 -0.00012339 0.0
0 0 0.0
0.1245 -0.000684163 0.0
0.229088 -0.00223478 0.0
0.212291 -0.00212406 0.0
0.240979 -0.00246254 0.0
0.247833 -0.00236516 0.0
0.225727 -0.00178446 0.0
0.238757 -0.00194142 0.0
0.24675 -0.0021005 0.0
0.249687 -0.00242975 0.0
0.184982 -0.00125892 0.0
0.157191 -0.000974334 0.0
0.207825 -0.00153355 0.0
0 0 0.0
0.0498987 -0.000164197 0.0
0.0936724 -0.000584779 0.0
0.131447 -0.00108808 0.0
0.190657 -0.00200694 0.0
0.163796 -0.00163892 0.0
0.045359 -0.000131957 0.0
0.0870776 -0.000393308 0.0
0 0 0.0
0.124248 -0.00069355 0.0
0.229245 -0.00253469 0.0
0.212556 -0.00242796 0.0
0.241032 -0.00276794 0.0
0.247801 -0.00264031 0.0
0.22551 -0.00189378 0.0
0.238552 -0.00210568 0.0
0.249566 -0.0026868 0.0
0.246515 -0.00239853 0.0
0.184761 -0.00129908 0.0
0.156891 -0.00100372 0.0
0.207542 -0.00162176 0.0
0 0 0.0
0.0502369 -0.000196682 0.0
0.0942128 -0.000694903 0.0
0.132099 -0.00131406 0.0
0.191152 -0.00240139 0.0
0.212835 -0.00278498 0.0
0.164306 -0.00191781 0.0
0.0451455 -0.000135551 0.0
0.0867906 -0.000402241 0.0
0 0 0.0
0.123945 -0.000692726 0.0
0.229452 -0.00300096 0.0
0.241063 -0.00304838 0.0
0.247746 -0.0029484 0.0
0.249445 -0.00290144 0.0
0.225272 -0.00199706 0.0
0.238297 -0.00228492 0.0
0.246298 -0.0026251 0.0
0.156571 -0.00101574 0.0
0.184443 -0.00134389 0.0
0.207216 -0.00170375 0.0
0 0 0.0
0.0506689 -0.000238182 0.0
0.0948562 -0.000833659 0.0
0.132767 -0.00155878 0.0
0.191479 -0.00268595 0.0
0.213123 -0.00318917 0.0
0.164883 -0.00224695 0.0
0.0449171 -0.000137675 0.0
0.0865052 -0.000400865 0.0
0 0 0.0
0.156298 -0.00100578 0.0
0.0862336 -0.000385599 0.0
0.123591 -0.000670333 0.0
0.229598 -0.00342982 0.0
0.241076 -0.00334588 0.0
0.247601 -0.00346248 0.0
0.249303 -0.0031267 0.0
0.2461 -0.00281905 0.0
0.224935 -0.00212427 0.0
0.23787 -0.00254756 0.0
0.18399 -0.00137482 0.0
0.206902 -0.00177161 0.0
0.229716 -0.00380861 0.0
0 0 0.0
0.0511617 -0.000286328 0.0
0.133544 -0.00184949 0.0
0.0956148 -0.00099987 0.0
0.213429 -0.00366866 0.0
0.192071 -0.00323071 0.0
0.16553 -0.00263245 0.0
0.0446857 -0.000132748 0.0
0 0 0.0
0.183679 -0.00138484 0.0
0.155935 -0.000982125 0.0
0.123286 -0.000636769 0.0
0.0444611 -0.000131905 0.0
0.0859744 -0.0003628 0.0
0.241074 -0.0037749 0.0
0.247481 -0.00377924 0.0
0.249059 -0.00346138 0.0
0.248839 -0.00374212 0.0
0.24586 -0.00302077 0.0
0.22453 -0.00225796 0.0
0.23747 -0.0027516 0.0
0.206542 -0.0018222 0.0
0.229807 -0.004233 0.0
0.0517232 -0.00034148 0.0
0 0 0.0
0.134295 -0.00212987 0.0
0.0965073 -0.00118908 0.0
0.213739 -0.00421056 0.0
0.192455 -0.00361216 0.0
0.166262 -0.00308114 0.0
0 0 0.0
0.183233 -0.00137606 0.0
0.15547 -0.000927727 0.0
0.123034 -0.000586485 0.0
0.0442733 -0.000124432 0.0
0.0857374 -0.000331957 0.0
0.241001 -0.00447533 0.0
0.247338 -0.00411517 0.0
0.248571 -0.00403597 0.0
0.245315 -0.00343314 0.0
0.224063 -0.00238673 0.0
0.237014 -0.00296532 0.0
0.20591 -0.00189922 0.0
0.229919 -0.00481865 0.0
0 0 0.0
0.0524251 -0.000409584 0.0
0.135305 -0.00250749 0.0
0.0974556 -0.00138861 0.0
0.167082 -0.0035878 0.0
0.214056 -0.00483217 0.0
0.193159 -0.00432638 0.0
0 0 0.0
0 0 0.0
0.18272 -0.00136058 0.0
0.155056 -0.00086928 0.0
0.122749 -0.0005244 0.0
0.0855352 -0.00029534 0.0
0.0440938 -0.000114444 0.0
0.240892 -0.00504828 0.0
0.247083 -0.00460739 0.0
0.236576 -0.00315187 0.0
0.248154 -0.00447007 0.0
0.24482 -0.00376407 0.0
0.223504 -0.00252519 0.0
0.205324 -0.00195031 0.0
0.240765 -0.00556472 0.0
0.229983 -0.00547822 0.0
0.0532607 -0.000486963 0.0
0.0986722 -0.00163379 0.0
0.136469 -0.00294093 0.0
0.16782 -0.00405427 0.0
0.214385 -0.00552567 0.0
0.193609 -0.00482977 0.0
0 0 0.0
0 0 0.0
0.154709 -0.000809571 0.0
0.182011 -0.0013216 0.0
0.0853825 -0.000254739 0.0
0.122435 -0.000444392 0.0
0.0439235 -0.000104896 0.0
0.246602 -0.00539721 0.0
0.247629 -0.00495761 0.0
0.204665 -0.00199894 0.0
0.236078 -0.00334242 0.0
0.244384 -0.00404385 0.0
0.22261 -0.00271847 0.0
0.240602 -0.00610223 0.0
0.230046 -0.00649301 0.0
0.214709 -0.00630998 0.0
0.0543001 -0.000582278 0.0
0.100086 -0.00192293 0.0
0.138024 -0.00350443 0.0
0.168843 -0.00468537 0.0
0.194441 -0.00575315 0.0
0 0 0.0
0 0 0.0
0.154167 -0.000722684 0.0
0.18136 -0.00129819 0.0
0.0852445 -0.000207095 0.0
0.122187 -0.000375755 0.0
0.0437874 -9.2427e-05 0.0
0.243876 -0.00434555 0.0
0.24701 -0.00548364 0.0
0.246139 -0.00604415 0.0
0.20391 -0.0020524 0.0
0.23536 -0.00360965 0.0
0.221811 -0.00289078 0.0
0.180656 -0.00127979 0.0
0.240197 -0.00718481 0.0
0 0 0.0
0.230013 -0.00736524 0.0
0.19517 -0.00660394 0.0
0.215031 -0.00717534 0.0
0.0554136 -0.000681837 0.0
0.13936 -0.00398767 0.0
0.101908 -0.00229295 0.0
0.170229 -0.00557269 0.0
0 0 0.0
0 0 0.0
0 0 0.0
0 0 0.0
0 0 0.0
0.0436863 -8.16506e-05 0.0
0.121964 -0.00031515 0.0
0.15369 -0.000662915 0.0
0.0851414 -0.000176793 0.0
0.243119 -0.00475475 0.0
0.246264 -0.0060742 0.0
0.245598 -0.00675148 0.0
0.221067 -0.00302586 0.0
0.203048 -0.00211789 0.0
0.234147 -0.00402517 0.0
0.202242 -0.00218387 0.0
0.180073 -0.0012727 0.0
0.239788 -0.0080739 0.0
0.229946 -0.00830805 0.0
0 0 0.0
9.38697e-05 -3.58768e-05 0.0
0 0 0.0
-0.000394562 0.00243719 0.0
0.215361 -0.00815326 0.0
0.195768 -0.00729582 0.0
0.0568485 -0.000814349 0.0
0.141106 -0.0046115 0.0
0.103833 -0.00268178 0.0
0.171558 -0.0064163 0.0
0 0 0.0
0 0 0.0
0 0 0.0
-0.000300234 0.00137334 0.0
-4.01476e-05 -7.83922e-05 0.0
-1.79032e-06 -1.83108e-05 0.0
0 0 0.0
0.0435806 -7.63275e-05 0.0
0.121779 -0.000272768 0.0
0.153192 -0.000620781 0.0
0.0850565 -0.000150407 0.0
0.242236 -0.00521887 0.0
0.245389 -0.00672208 0.0
0.244934 -0.00752681 0.0
0.220238 -0.00318993 0.0
0.233331 -0.00430598 0.0
0.201357 -0.00226067 0.0
0.179042 -0.00129528 0.0
0.239302 -0.00903899 0.0
0.232646 -0.00924001 0.0
0.223324 -0.00919543 0.0
0 0 0.0
9.82566e-05 2.00906e-05 0.0
0 0 0.0
0 0 0.0
-0.00138404 0.00537278 0.0
-0.00136392 0.00360637 0.0
0.211314 -0.00892827 0.0
0.196606 -0.00832188 0.0
0.105824 -0.00308915 0.0
0.0583776 -0.000967956 0.0
0.143083 -0.00533539 0.0
0.173018 -0.00736682 0.0
0 0 0.0
-0.000520093 0.000737251 0.0
-0.000949397 0.00192927 0.0
-0.000352374 0.000316547 0.0
-0.000343757 0.000299956 0.0
0 0 0.0
0.0434889 -7.39514e-05 0.0
0.121578 -0.000246194 0.0
0.152681 -0.000595645 0.0
0.0849933 -0.000141005 0.0
0.241208 -0.00572598 0.0
0.244373 -0.0074273 0.0
0.244142 -0.0083762 0.0
0.218692 -0.0034979 0.0
0.232426 -0.00459374 0.0
0.20021 -0.00239274 0.0
0.152165 -0.000619129 0.0
0.178139 -0.0013566 0.0
0.238827 -0.00987075 0.0
0.229689 -0.0101135 0.0
0.215886 -0.0100899 0.0
0 0 0.0
-0.000242842 0.000163952 0.0
0 0 0.0
0 0 0.0
0 0 0.0
0 0 0.0
-0.00249725 0.00382808 0.0
-0.000374122 0.00455139 0.0
-0.00139163 0.00687675 0.0
-0.00326262 0.00897971 0.0
-0.00280587 0.00623709 0.0
0 0 0.0
-4.47201e-05 0.00648354 0.0
0.197723 -0.00981142 0.0
0.174303 -0.00824966 0.0
0 0 0.0
0.0603769 -0.00118248 0.0
0.108346 -0.00363663 0.0
0.145684 -0.00637005 0.0
0 0 0.0
0 0 0.0
-0.00155294 0.00191095 0.0
-0.00123547 0.00110491 0.0
-0.00120326 0.000747803 0.0