# vtk DataFile Version 3.0
Mesh NS-CD Problem
ASCII
DATASET UNSTRUCTURED_GRID
POINTS 10839 float
-2 0.3 0.0
-2 0.4 0.0
-2 0.35 0.0
-2 0.45 0.0
-2 0.5 0.0
-2 0.55 0.0
-2 0 0.0
-2 0.05 0.0
-2 0.85 0.0
-2 0.9 0.0
-2 0.1 0.0
-2 0.15 0.0
-2 0.25 0.0
-2 0.2 0.0
-1.96653 0.266667 0.0
-1.96524 0.415385 0.0
-1.96485 0.315 0.0
-1.96348 0.363636 0.0
-1.96414 0.464286 0.0
-2 0.6 0.0
-1.96538 0.584615 0.0
-1.96538 0.538462 0.0
-1.94979 0 0.0
-1.96653 0.0666666 0.0
-1.93306 0.0333333 0.0
-2 0.8 0.0
-2 0.75 0.0
-2 0.7 0.0
-2 0.65 0.0
-1.96249 0.7375 0.0
-1.96666 0.833333 0.0
-2 1 0.0
-2 0.95 0.0
-1.96249 0.8875 0.0
-1.96666 0.933333 0.0
-1.96234 0.1125 0.0
-1.96653 0.166667 0.0
-1.93724 0.225 0.0
-1.92971 0.28 0.0
-1.93048 0.380769 0.0
-1.93048 0.423077 0.0
-1.89958 0.3375 0.0
-1.9292 0.484203 0.0
-1.92117 0.530907 0.0
-1.96363 0.636364 0.0
-1.93076 0.576923 0.0
-1.89958 0 0.0
-1.88703 0.0375 0.0
-1.90963 0.08 0.0
-1.86611 0.0666666 0.0
-1.93749 0.775 0.0
-1.93635 0.672727 0.0
-1.92999 0.72 0.0
-1.93332 0.866667 0.0
-1.92856 0.821429 0.0
-1.94999 1 0.0
-1.92499 0.9625 0.0
-1.92499 0.925 0.0
-1.89998 0.9 0.0
-1.89958 0.125 0.0
-1.92827 0.178571 0.0
-1.89958 0.233333 0.0
-1.89045 0.290909 0.0
-1.86096 0.311538 0.0
-1.89241 0.392857 0.0
-1.89334 0.448489 0.0
-1.85655 0.357143 0.0
-1.89614 0.653846 0.0
-1.89427 0.504121 0.0
-1.8952 0.559753 0.0
-1.89614 0.615385 0.0
-1.84937 0 0.0
-1.83264 0.0333333 0.0
-1.85655 0.107143 0.0
-1.81172 0.075 0.0
-1.89998 0.766667 0.0
-1.89089 0.709091 0.0
-1.87498 0.85 0.0
-1.85998 0.79 0.0
-1.88748 0.8125 0.0
-1.89998 1 0.0
-1.88748 0.9625 0.0
-1.86664 0.933333 0.0
-1.85712 0.892857 0.0
-1.87448 0.15 0.0
-1.86611 0.194444 0.0
-1.83264 0.133333 0.0
-1.83264 0.2625 0.0
-1.82068 0.321429 0.0
-1.85664 0.404762 0.0
-1.85674 0.452381 0.0
-1.85683 0.5 0.0
-1.81184 0.375 0.0
-1.85712 0.642857 0.0
-1.85693 0.547619 0.0
-1.85702 0.595238 0.0
-1.79917 0 0.0
-1.78482 0.0357143 0.0
-1.79917 0.116667 0.0
-1.76569 0.0666666 0.0
-1.85452 0.745455 0.0
-1.82689 0.692308 0.0
-1.81815 0.781818 0.0
-1.82497 0.825 0.0
-1.84997 1 0.0
-1.8333 0.958333 0.0
-1.81247 0.8875 0.0
-1.81247 0.925 0.0
-1.81742 0.218182 0.0
-1.82427 0.175 0.0
-1.77634 0.145455 0.0
-1.79144 0.242308 0.0
-1.78482 0.285714 0.0
-1.77469 0.332653 0.0
-1.81215 0.529762 0.0
-1.81194 0.422619 0.0
-1.81203 0.470238 0.0
-1.76714 0.392857 0.0
-1.81234 0.625 0.0
-1.79732 0.571429 0.0
-1.74896 0 0.0
-1.73222 0.0333333 0.0
-1.75398 0.105 0.0
-1.71883 0.07 0.0
-1.79227 0.730769 0.0
-1.78007 0.679121 0.0
-1.75765 0.769231 0.0
-1.78178 0.818182 0.0
-1.78996 0.86 0.0
-1.79996 1 0.0
-1.78568 0.964286 0.0
-1.76663 0.922222 0.0
-1.76569 0.1875 0.0
-1.73222 0.15 0.0
-1.74896 0.25 0.0
-1.73714 0.304762 0.0
-1.76743 0.537202 0.0
-1.72869 0.343878 0.0
-1.76732 0.485119 0.0
-1.76723 0.440476 0.0
-1.72243 0.410714 0.0
-1.76757 0.607143 0.0
-1.69875 0 0.0
-1.68369 0.035 0.0
-1.69875 0.1125 0.0
-1.66528 0.075 0.0
-1.74341 0.708974 0.0
-1.73324 0.665934 0.0
-1.70441 0.74478 0.0
-1.71423 0.785714 0.0
-1.72303 0.826923 0.0
-1.74541 0.854545 0.0
-1.74541 0.890909 0.0
-1.74996 1 0.0
-1.73745 0.9625 0.0
-1.71359 0.927273 0.0
-1.68716 0.153846 0.0
-1.7131 0.214286 0.0
-1.70725 0.275 0.0
-1.69712 0.321939 0.0
-1.72279 0.589286 0.0
-1.72261 0.5 0.0
-1.7227 0.544643 0.0
-1.6827 0.355102 0.0
-1.67773 0.428571 0.0
-1.70763 0.464286 0.0
-1.70369 0.62449 0.0
-1.64854 0 0.0
-1.63181 0.0375 0.0
-1.64137 0.142857 0.0
-1.61764 0.0769231 0.0
-1.69458 0.703846 0.0
-1.67471 0.657437 0.0
-1.66143 0.727637 0.0
-1.67125 0.768571 0.0
-1.67851 0.821429 0.0
-1.68841 0.861538 0.0
-1.70904 0.890909 0.0
-1.69995 1 0.0
-1.68176 0.963636 0.0
-1.67267 0.927273 0.0
-1.65427 0.187143 0.0
-1.66718 0.231429 0.0
-1.66554 0.3 0.0
-1.67802 0.571429 0.0
-1.67792 0.523809 0.0
-1.6367 0.366327 0.0
-1.63682 0.423469 0.0
-1.62568 0.502976 0.0
-1.6629 0.470238 0.0
-1.65254 0.618367 0.0
-1.6059 0.307143 0.0
-1.59833 0 0.0
-1.58288 0.0384615 0.0
-1.60563 0.169643 0.0
-1.58179 0.112271 0.0
-1.56964 0.0714286 0.0
-1.64574 0.690385 0.0
-1.62827 0.751429 0.0
-1.63371 0.791071 0.0
-1.64279 0.857143 0.0
-1.65378 0.896154 0.0
-1.64994 1 0.0
-1.6363 0.963636 0.0
-1.61916 0.930769 0.0
-1.61345 0.209107 0.0
-1.62126 0.248571 0.0
-1.56989 0.196429 0.0
-1.63324 0.553571 0.0
-1.58846 0.535714 0.0
-1.59408 0.361905 0.0
-1.59161 0.402211 0.0
-1.58832 0.464286 0.0
-1.61504 0.598581 0.0
-1.59683 0.64359 0.0
-1.57899 0.274107 0.0
-1.56176 0.322381 0.0
-1.54812 0 0.0
-1.53378 0.0357143 0.0
-1.54593 0.147619 0.0
-1.53385 0.0732143 0.0
-1.53393 0.110714 0.0
-1.58522 0.704286 0.0
-1.58709 0.745 0.0
-1.58896 0.785714 0.0
-1.60695 0.830357 0.0
-1.60707 0.892857 0.0
-1.59993 1 0.0
-1.58454 0.965385 0.0
-1.57135 0.928571 0.0
-1.55209 0.241071 0.0
-1.5291 0.198214 0.0
-1.56936 0.570918 0.0
-1.54369 0.517857 0.0
-1.5464 0.380952 0.0
-1.54564 0.427721 0.0
-1.54488 0.47449 0.0
-1.55026 0.606122 0.0
-1.54222 0.677143 0.0
-1.52943 0.282857 0.0
-1.52143 0.33619 0.0
-1.49792 0 0.0
-1.49802 0.05 0.0
-1.49822 0.15 0.0
-1.49312 0.1 0.0
-1.5423 0.717143 0.0
-1.54419 0.767857 0.0
-1.54727 0.819048 0.0
-1.57122 0.861905 0.0
-1.53553 0.914286 0.0
-1.54992 1 0.0
-1.53563 0.964286 0.0
-1.49842 0.25 0.0
-1.48831 0.2 0.0
-1.5214 0.558929 0.0
-1.49891 0.5 0.0
-1.49871 0.4 0.0
-1.47631 0.45 0.0
-1.49911 0.6 0.0
-1.49921 0.65 0.0
-1.49931 0.7 0.0
-1.48111 0.35 0.0
-1.48351 0.3 0.0
-1.44771 0 0.0
-1.44782 0.05 0.0
-1.44804 0.15 0.0
-1.44793 0.1 0.0
-1.49941 0.75 0.0
-1.49951 0.8 0.0
-1.49981 0.95 0.0
-1.49961 0.85 0.0
-1.49971 0.9 0.0
-1.49991 1 0.0
-1.44826 0.25 0.0
-1.43815 0.2 0.0
-1.47151 0.55 0.0
-1.44881 0.5 0.0
-1.44859 0.4 0.0
-1.42619 0.45 0.0
-1.44913 0.65 0.0
-1.44902 0.6 0.0
-1.44935 0.75 0.0
-1.44924 0.7 0.0
-1.43972 0.35 0.0
-1.43336 0.3 0.0
-1.3975 0 0.0
-1.39762 0.05 0.0
-1.39786 0.15 0.0
-1.39274 0.1 0.0
-1.44957 0.85 0.0
-1.44946 0.8 0.0
-1.4523 0.95 0.0
-1.44968 0.9 0.0
-1.4499 1 0.0
-1.3981 0.25 0.0
-1.38798 0.2 0.0
-1.42141 0.55 0.0
-1.3987 0.5 0.0
-1.39834 0.35 0.0
-1.37845 0.4 0.0
-1.37607 0.45 0.0
-1.40784 0.65 0.0
-1.39894 0.6 0.0
-1.41185 0.75 0.0
-1.39918 0.7 0.0
-1.38322 0.3 0.0
-1.34729 0 0.0
-1.34492 0.05 0.0
-1.34018 0.15 0.0
-1.34255 0.1 0.0
-1.40707 0.85 0.0
-1.39941 0.8 0.0
-1.39977 0.95 0.0
-1.39965 0.9 0.0
-1.39989 1 0.0
-1.33781 0.2 0.0
-1.33544 0.25 0.0
-1.37131 0.55 0.0
-1.34859 0.5 0.0
-1.33833 0.4 0.0
-1.3307 0.35 0.0
-1.32595 0.45 0.0
-1.34885 0.6 0.0
-1.36655 0.65 0.0
-1.36179 0.75 0.0
-1.34911 0.7 0.0
-1.33307 0.3 0.0
-1.29708 0 0.0
-1.29722 0.05 0.0
-1.2975 0.15 0.0
-1.29236 0.1 0.0
-1.35703 0.85 0.0
-1.34937 0.8 0.0
-1.34988 1 0.0
-1.34962 0.9 0.0
-1.35226 0.95 0.0
-1.28528 0.25 0.0
-1.28764 0.2 0.0
-1.28931 0.35 0.0
-1.32121 0.55 0.0
-1.29848 0.5 0.0
-1.28709 0.45 0.0
-1.2982 0.4 0.0
-1.29876 0.6 0.0
-1.31647 0.65 0.0
-1.29918 0.75 0.0
-1.29904 0.7 0.0
-1.28292 0.3 0.0
-1.24687 0 0.0
-1.24702 0.05 0.0
-1.24717 0.1 0.0
-1.24732 0.15 0.0
-1.29946 0.85 0.0
-1.29932 0.8 0.0
-1.29987 1 0.0
-1.29974 0.95 0.0
-1.30462 0.9 0.0
-1.24762 0.25 0.0
-1.23747 0.2 0.0
-1.24792 0.35 0.0
-1.22807 0.4 0.0
-1.27111 0.55 0.0
-1.24837 0.5 0.0
-1.24822 0.45 0.0
-1.24867 0.6 0.0
-1.26639 0.65 0.0
-1.26167 0.75 0.0
-1.24897 0.7 0.0
-1.23277 0.3 0.0
-1.19667 0 0.0
-1.19683 0.05 0.0
-1.18964 0.15 0.0
-1.19198 0.1 0.0
-1.25695 0.85 0.0
-1.24927 0.8 0.0
-1.25223 0.95 0.0
-1.24987 1 0.0
-1.24957 0.9 0.0
-1.1873 0.2 0.0
-1.18496 0.25 0.0
-1.18028 0.35 0.0
-1.17794 0.4 0.0
-1.1981 0.45 0.0
-1.19842 0.55 0.0
-1.19826 0.5 0.0
-1.19858 0.6 0.0
-1.19874 0.65 0.0
-1.19906 0.75 0.0
-1.1989 0.7 0.0
-1.18262 0.3 0.0
-1.14646 0 0.0
-1.14663 0.05 0.0
-1.1418 0.1 0.0
-1.13713 0.2 0.0
-1.14697 0.15 0.0
-1.20691 0.85 0.0
-1.20926 0.8 0.0
-1.20221 0.95 0.0
-1.19986 1 0.0
-1.20456 0.9 0.0
-1.13997 0.3 0.0
-1.14731 0.25 0.0
-1.13781 0.4 0.0
-1.13014 0.35 0.0
-1.12548 0.45 0.0
-1.14815 0.5 0.0
-1.15962 0.55 0.0
-1.14849 0.6 0.0
-1.15745 0.65 0.0
-1.16155 0.75 0.0
-1.14917 0.8 0.0
-1.14883 0.7 0.0
-1.09625 0 0.0
-1.09661 0.1 0.0
-1.09393 0.05 0.0
-1.09697 0.2 0.0
-1.08929 0.15 0.0
-1.15687 0.85 0.0
-1.14985 1 0.0
-1.15219 0.95 0.0
-1.14951 0.9 0.0
-1.09733 0.3 0.0
-1.08465 0.25 0.0
-1.09769 0.4 0.0
-1.08 0.35 0.0
-1.08661 0.45 0.0
-1.09804 0.5 0.0
-1.12082 0.55 0.0
-1.10916 0.8 0.0
-1.10629 0.7 0.0
-1.0984 0.6 0.0
-1.11616 0.65 0.0
-1.11149 0.75 0.0
-1.04604 0 0.0
-1.04623 0.05 0.0
-1.04642 0.1 0.0
-1.0468 0.2 0.0
-1.03911 0.15 0.0
-1.09948 0.9 0.0
-1.0993 0.85 0.0
-1.09984 1 0.0
-1.09966 0.95 0.0
-1.04718 0.3 0.0
-1.03449 0.25 0.0
-1.04756 0.4 0.0
-1.02986 0.35 0.0
-1.04775 0.45 0.0
-1.04794 0.5 0.0
-1.04813 0.55 0.0
-1.05911 0.8 0.0
-1.04831 0.6 0.0
-1.06376 0.7 0.0
-1.0485 0.65 0.0
-1.04888 0.75 0.0
-0.995833 0 0.0
-0.991231 0.1 0.0
-0.996033 0.05 0.0
-0.986629 0.2 0.0
-0.98893 0.15 0.0
-1.05447 0.9 0.0
-1.04926 0.85 0.0
-1.04983 1 0.0
-1.04964 0.95 0.0
-0.984328 0.25 0.0
-0.99703 0.3 0.0
-0.997429 0.4 0.0
-0.997628 0.45 0.0
-0.979726 0.35 0.0
-0.997827 0.5 0.0
-0.998027 0.55 0.0
-0.998226 0.6 0.0
-0.961416 0.475 0.0
-1.00907 0.8 0.0
-0.998426 0.65 0.0
-0.998625 0.7 0.0
-1.01138 0.75 0.0
-0.945625 0 0.0
-0.946044 0.1 0.0
-0.943334 0.05 0.0
-0.946463 0.2 0.0
-0.938752 0.15 0.0
-1.00444 0.9 0.0
-1.00675 0.85 0.0
-0.999821 1 0.0
-1.00213 0.95 0.0
-0.93417 0.25 0.0
-0.946881 0.3 0.0
-0.9473 0.4 0.0
-0.929588 0.35 0.0
-0.925005 0.45 0.0
-0.960371 0.525 0.0
-0.959325 0.575 0.0
-0.958279 0.625 0.0
-0.922714 0.5 0.0
-0.959017 0.8 0.0
-0.957233 0.675 0.0
-0.952999 0.7125 0.0
-0.948766 0.75 0.0
-0.895417 0 0.0
-0.895855 0.1 0.0
-0.893136 0.05 0.0
-0.896294 0.2 0.0
-0.888573 0.15 0.0
-0.949184 0.85 0.0
-0.954415 0.9 0.0
-0.949812 1 0.0
-0.949603 0.95 0.0
-0.884011 0.25 0.0
-0.896733 0.3 0.0
-0.874887 0.45 0.0
-0.879449 0.35 0.0
-0.897171 0.4 0.0
-0.920423 0.55 0.0
-0.918132 0.6 0.0
-0.915841 0.65 0.0
-0.872606 0.5 0.0
-0.908968 0.8 0.0
-0.91355 0.7 0.0
-0.898707 0.75 0.0
-0.845208 0 0.0
-0.845438 0.05 0.0
-0.845667 0.1 0.0
-0.845896 0.15 0.0
-0.833853 0.25 0.0
-0.846126 0.2 0.0
-0.899146 0.85 0.0
-0.904386 0.9 0.0
-0.899584 0.95 0.0
-0.899804 1 0.0
-0.838062 0.35 0.0
[...]
POINT_DATA 10839
VECTORS Velocity float
0.21 0 0.0
0.24 0 0.0
0.2275 0 0.0
0.2475 0 0.0
0.25 0 0.0
0.2475 0 0.0
0 0 0.0
0.0475 0 0.0
0.1275 0 0.0
0.09 0 0.0
0.09 0 0.0
0.1275 0 0.0
0.1875 0 0.0
0.16 0 0.0
0.195557 -2.10798e-05 0.0
0.24284 -2.69699e-05 0.0
0.215776 -2.487e-05 0.0
0.231405 -2.7478e-05 0.0
0.248724 -2.74161e-05 0.0
0.24 0 0.0
0.24284 -2.31498e-05 0.0
0.24852 -2.49846e-05 0.0
0 0 0.0
0.0622237 -3.59377e-06 0.0
0.0322263 -2.41146e-06 0.0
0.16 0 0.0
0.1875 0 0.0
0.21 0 0.0
0.2275 0 0.0
0.193592 -1.80772e-05 0.0
0.138888 -1.05401e-05 0.0
0 0 0.0
0.0475 0 0.0
0.0998422 -7.63794e-06 0.0
0.062221 -3.29712e-06 0.0
0.0998459 -9.41181e-06 0.0
0.13889 -1.31834e-05 0.0
0.174379 -3.34395e-05 0.0
0.201605 -4.58393e-05 0.0
0.235785 -5.36096e-05 0.0
0.244083 -5.42691e-05 0.0
0.223599 -7.43162e-05 0.0
0.249749 -5.33177e-05 0.0
0.249042 -5.65591e-05 0.0
0.231404 -2.24222e-05 0.0
0.24408 -4.57895e-05 0.0
0 0 0.0
0.0361063 -4.84587e-06 0.0
0.073611 -1.31402e-05 0.0
0.0622456 -1.46421e-05 0.0
0.174372 -2.48018e-05 0.0
0.220163 -3.41741e-05 0.0
0.201596 -3.37559e-05 0.0
0.115551 -1.57368e-05 0.0
0.146679 -2.34353e-05 0.0
0 0 0.0
0.0360889 -2.70366e-06 0.0
0.0693686 -8.51062e-06 0.0
0.0899887 -1.6154e-05 0.0
0.109389 -2.75224e-05 0.0
0.146691 -2.99279e-05 0.0
0.178901 -5.6832e-05 0.0
0.206291 -7.43931e-05 0.0
0.214496 -0.000101138 0.0
0.238522 -8.40898e-05 0.0
0.247345 -8.28696e-05 0.0
0.2296 -0.000111709 0.0
0.226325 -5.70318e-05 0.0
0.249978 -7.76925e-05 0.0
0.246423 -7.07524e-05 0.0
0.23668 -6.30687e-05 0.0
0 0 0.0
0.0322474 -5.51363e-06 0.0
0.0956923 -3.12407e-05 0.0
0.0694216 -2.25893e-05 0.0
0.178881 -3.98897e-05 0.0
0.206273 -5.22308e-05 0.0
0.127485 -3.18406e-05 0.0
0.165885 -4.90502e-05 0.0
0.152333 -3.67971e-05 0.0
0 0 0.0
0.0360834 -3.61385e-06 0.0
0.0622037 -1.10796e-05 0.0
0.0956411 -2.4554e-05 0.0
0.127522 -4.28335e-05 0.0
0.156659 -6.33869e-05 0.0
0.115596 -4.86115e-05 0.0
0.193623 -0.000107984 0.0
0.218133 -0.000136633 0.0
0.240931 -0.000114029 0.0
0.247728 -0.000111842 0.0
0.249991 -0.000105687 0.0
0.234384 -0.000152958 0.0
0.229578 -7.71533e-05 0.0
0.24772 -9.71631e-05 0.0
0.240916 -8.75639e-05 0.0
0 0 0.0
0.0344807 -6.64493e-06 0.0
0.103113 -4.58156e-05 0.0
0.0622891 -1.87343e-05 0.0
0.189737 -5.91773e-05 0.0
0.212998 -7.9207e-05 0.0
0.170555 -6.26543e-05 0.0
0.14435 -4.94469e-05 0.0
0 0 0.0
0.0399078 -6.06273e-06 0.0
0.0998066 -3.4201e-05 0.0
0.0693381 -1.87217e-05 0.0
0.170622 -9.91603e-05 0.0
0.144418 -7.27411e-05 0.0
0.124372 -6.95979e-05 0.0
0.183648 -0.000129212 0.0
0.204125 -0.000157294 0.0
0.222023 -0.000183763 0.0
0.249093 -0.000130379 0.0
0.244009 -0.000152268 0.0
0.249101 -0.000144979 0.0
0.238523 -0.000197472 0.0
0.234351 -0.000100738 0.0
0.244869 -0.000124909 0.0
0 0 0.0
0.0322764 -3.91982e-06 0.0
0.0940617 -4.08764e-05 0.0
0.0651909 -1.33972e-05 0.0
0.196718 -7.90219e-05 0.0
0.217883 -9.52011e-05 0.0
0.17748 -7.72142e-05 0.0
0.148725 -6.31423e-05 0.0
0.120359 -4.88636e-05 0.0
0 0 0.0
0.0344046 -6.62541e-06 0.0
0.0716699 -2.89658e-05 0.0
0.152425 -0.00010791 0.0
0.127615 -8.24845e-05 0.0
0.187578 -0.000167862 0.0
0.211939 -0.000214556 0.0
0.248577 -0.000153967 0.0
0.225659 -0.000239244 0.0
0.249749 -0.000176477 0.0
0.246441 -0.000190601 0.0
0.242015 -0.000244867 0.0
0.238479 -0.00012348 0.0
0 0 0.0
0.0338362 1.40776e-06 0.0
0.0999816 -3.95652e-05 0.0
0.0694946 1.54596e-06 0.0
0.20629 -8.99481e-05 0.0
0.222416 -0.000104843 0.0
0.19004 -8.18092e-05 0.0
0.168327 -8.00334e-05 0.0
0.143073 -7.72084e-05 0.0
0.124244 -6.49019e-05 0.0
0.0971242 -5.16677e-05 0.0
0 0 0.0
0.0360372 -1.17e-05 0.0
0.0673458 -4.34938e-05 0.0
0.130351 -9.44813e-05 0.0
0.168495 -0.000164532 0.0
0.199472 -0.000232035 0.0
0.218355 -0.000274665 0.0
0.241963 -0.000146577 0.0
0.249945 -0.000203174 0.0
0.247943 -0.000174102 0.0
0.229035 -0.000305102 0.0
0.244853 -0.000292768 0.0
0.248675 -0.000237859 0.0
0.23443 -0.000124622 0.0
0 0 0.0
0.0361462 1.15118e-05 0.0
0.122698 -7.88813e-05 0.0
0.0711491 1.97392e-05 0.0
0.208393 -8.63729e-05 0.0
0.225134 -0.000100111 0.0
0.198131 -6.92312e-05 0.0
0.177832 -7.53872e-05 0.0
0.14664 -8.79898e-05 0.0
0.119222 -8.85375e-05 0.0
0.0971075 -6.90388e-05 0.0
0 0 0.0
0.0349441 -2.05502e-05 0.0
0.0673078 -6.38205e-05 0.0
0.152351 -0.000166091 0.0
0.178047 -0.000234836 0.0
0.210103 -0.000312129 0.0
0.244797 -0.000168257 0.0
0.249335 -0.000215378 0.0
0.232145 -0.000382362 0.0
0.244074 -0.000355639 0.0
0.249838 -0.000272832 0.0
0.249026 -0.000278222 0.0
0.235875 -0.000121153 0.0
0.212942 -0.00044105 0.0
0 0 0.0
0.0370076 2.03709e-05 0.0
0.141217 -0.000161479 0.0
0.0999809 -2.00347e-05 0.0
0.0664644 3.28537e-05 0.0
0.213677 -6.81964e-05 0.0
0.18675 -4.948e-05 0.0
0.165258 -7.16721e-05 0.0
0.12239 -0.000110624 0.0
0.0929475 -0.000101764 0.0
0 0 0.0
0.0348886 -3.11122e-05 0.0
0.0642373 -9.00947e-05 0.0
0.165688 -0.000261266 0.0
0.187016 -0.000334035 0.0
0.158296 -0.000301223 0.0
0.246977 -0.000195273 0.0
0.248496 -0.0002384 0.0
0.230941 -0.000482256 0.0
0.24036 -0.000458371 0.0
0.248546 -0.000372021 0.0
0.240114 -0.000130013 0.0
0.229227 -5.76773e-05 0.0
0.199222 -0.000476946 0.0
0.218569 -0.000576162 0.0
0 0 0.0
0.0344221 2.0746e-05 0.0
0.126364 -0.000161916 0.0
0.0680224 2.38536e-05 0.0
0.0988824 -5.04495e-05 0.0
0.208185 4.18142e-06 0.0
0.18995 1.37909e-06 0.0
0.168383 -3.49719e-05 0.0
0.140858 -9.55318e-05 0.0
0.0955357 -0.000131933 0.0
0 0 0.0
0.0331825 -3.95609e-05 0.0
0.0660554 -0.00011306 0.0
0.183361 -0.000486663 0.0
0.159528 -0.000416804 0.0
0.244708 -0.00015887 0.0
0.249347 -0.000295803 0.0
0.235753 -0.000599671 0.0
0.244573 -0.000521632 0.0
0.249056 -0.000414565 0.0
0.238464 -6.17845e-05 0.0
0.218456 7.13989e-05 0.0
0.203145 -0.000663732 0.0
0.223232 -0.000725712 0.0
0 0 0.0
0.0475322 1.54541e-05 0.0
0.128256 -0.000298133 0.0
0.090474 -8.99765e-05 0.0
0.202782 9.67119e-05 0.0
0.178298 6.32871e-05 0.0
0.148298 -2.77968e-05 0.0
0.119004 -0.000121446 0.0
0.0781152 -0.000124407 0.0
0 0 0.0
0.0341008 -4.80823e-05 0.0
0.188019 -0.000733647 0.0
0.160778 -0.000595681 0.0
0.246127 -0.000165529 0.0
0.24953 -0.000380344 0.0
0.239772 -0.000723337 0.0
0.247036 -0.000622608 0.0
0.239572 -6.11384e-08 0.0
0.227192 0.000139155 0.0
0.209863 0.000225282 0.0
0.227467 -0.000896957 0.0
0.210257 -0.000904124 0.0
0 0 0.0
0.0475931 -3.28287e-05 0.0
0.128543 -0.000546467 0.0
0.0906734 -0.00023005 0.0
0.187545 0.000222185 0.0
0.160184 0.00013894 0.0
0.0470703 -6.57723e-05 0.0
0.127648 8.25259e-06 0.0
0.0898498 -8.40551e-05 0.0
0 0 0.0
0.188166 -0.00103946 0.0
0.161032 -0.0009134 0.0
0.246897 -0.000171287 0.0
0.249291 -0.000430796 0.0
0.239613 -0.000919516 0.0
0.246776 -0.000764744 0.0
0.227052 0.000316458 0.0
0.23937 0.000110404 0.0
0.18759 0.000468881 0.0
0.209799 0.000447018 0.0
0.227395 -0.0011236 0.0
0.210274 -0.00123132 0.0
0 0 0.0
0.0477798 -0.000121315 0.0
0.128903 -0.000940222 0.0
0.0910907 -0.000522017 0.0
0.127803 0.000225317 0.0
0.160308 0.00038136 0.0
0.0470341 -2.49346e-05 0.0
0.0899394 5.14137e-05 0.0
0 0 0.0
0.188302 -0.00146849 0.0
0.161303 -0.00137864 0.0
0.246617 -0.000123321 0.0
0.248964 -0.000478845 0.0
0.227269 -0.00140264 0.0
0.239263 -0.00128889 0.0
0.246435 -0.000931337 0.0
0.226882 0.000509913 0.0
0.239083 0.000266001 0.0
0.187605 0.000727245 0.0
0.209694 0.000766193 0.0
0.210248 -0.0016557 0.0
0 0 0.0
0.0481734 -0.000242511 0.0
0.129448 -0.0015935 0.0
0.0916944 -0.000901747 0.0
0.127975 0.000521066 0.0
0.16044 0.000764294 0.0
0.0471125 5.26128e-05 0.0
0.0901513 0.000284851 0.0
0 0 0.0
0.16158 -0.00201063 0.0
0.188424 -0.00219725 0.0
0.246228 -5.75662e-05 0.0
0.248511 -0.000535015 0.0
0.238952 -0.00155214 0.0
0.226953 -0.00197595 0.0
0.245957 -0.00113035 0.0
0.238687 0.000470446 0.0
0.226648 0.00075896 0.0
0.187588 0.00119127 0.0
0.20951 0.00118543 0.0
0.210152 -0.00220289 0.0
0 0 0.0
0.0487568 -0.000378867 0.0
0.12995 -0.00219795 0.0
0.0925871 -0.00137059 0.0
0.128256 0.00100917 0.0
0.160561 0.0013062 0.0
0 0 0.0
0.0905786 0.000630986 0.0
0.0473331 0.000153613 0.0
0.188433 -0.00296723 0.0
0.161848 -0.00281138 0.0
0.226639 -0.00241686 0.0
0.24571 3.30349e-05 0.0
0.247917 -0.000595687 0.0
0.245482 -0.0013074 0.0
0.238564 -0.00185324 0.0
0.23815 0.000725121 0.0
0.226266 0.00113227 0.0
0.18747 0.0019741 0.0
0.209221 0.00171319 0.0
0.209956 -0.0028562 0.0
0 0 0.0
0.0496839 -0.00055174 0.0
0.0936736 -0.00184214 0.0
0.130702 -0.00301445 0.0
0.128726 0.00175818 0.0
0.160662 0.00201173 0.0
0 0 0.0
0.0478221 0.000294068 0.0
0.0911744 0.00102417 0.0
0.18838 -0.00362565 0.0
0.162122 -0.0037555 0.0
0.226229 -0.0029218 0.0
0.237646 -0.00247373 0.0
0.245027 0.000143884 0.0
0.247144 -0.000658073 0.0
0.244908 -0.00150989 0.0
0.237449 0.00102942 0.0
0.225735 0.00158672 0.0
0.187296 0.00254763 0.0
0.208795 0.00235247 0.0
0.209623 -0.00363161 0.0
0 0 0.0
0.0509232 -0.000713094 0.0
0.131913 -0.00405557 0.0
0.0954799 -0.00246851 0.0
0.129182 0.00240593 0.0
0.160748 0.00286414 0.0
0.0485503 0.000443813 0.0
0 0 0.0
0.0922562 0.00156812 0.0
0.162415 -0.00481135 0.0
0.188185 -0.00489714 0.0
0.225318 -0.00386413 0.0
0.236739 -0.00298972 0.0
0.243978 -0.00180574 0.0
0.243708 0.000343144 0.0
0.24617 -0.000739281 0.0
0.236553 0.00138076 0.0
0.224751 0.00232548 0.0
0.186909 0.00366934 0.0
0.208199 0.00309563 0.0
0.209142 -0.00452496 0.0
0 0 0.0
0.0524949 -0.000891996 0.0
0.0974775 -0.00301672 0.0
0.162789 -0.0059351 0.0
0.132963 -0.00484544 0.0
0.129928 0.00324539 0.0
0.160801 0.00361884 0.0
0.0495909 0.00060812 0.0
0 0 0.0
0.0934419 0.00202497 0.0
0.208589 -0.00536901 0.0
0.187966 -0.0057269 0.0
0.235867 -0.00345717 0.0
0.224385 -0.00466724 0.0
0.242254 -0.00227918 0.0
0.244968 -0.000825003 0.0
0.242783 0.000464065 0.0
0.235437 0.00177498 0.0
0.22394 0.0028379 0.0
0.186547 0.00440404 0.0
0.160969 0.00486519 0.0
0.207424 0.0039307 0.0
0 0 0.0
0.0997126 -0.00347972 0.0
0.0543995 -0.00106929 0.0
0.163185 -0.00687577 0.0
0.13486 -0.00586311 0.0
0.130928 0.00411176 0.0
0 0 0.0
0.0509237 0.00075715 0.0
0.0953611 0.0025866 0.0
0.207917 -0.00626561 0.0
0.187563 -0.00720244 0.0
0.234834 -0.00394191 0.0
0.22325 -0.00554562 0.0
0.241077 -0.00257016 0.0
0.243502 -0.000922564 0.0
0.241738 0.000590971 0.0
0.161101 0.00568965 0.0
0.206591 0.00470745 0.0
0.234061 0.00220625 0.0
0.222991 0.00338532 0.0
0.186023 0.00544272 0.0
0 0 0.0
0.0563663 -0.00118169 0.0
0.102451 -0.00392141 0.0
0.16381 -0.00797795 0.0
0.13684 -0.00664721 0.0
0.0974875 0.00305521 0.0
0.132392 0.00503886 0.0
0 0 0.0
0.0526357 0.000906866 0.0
0.206963 -0.00739014 0.0
0.187181 -0.00840332 0.0
0.23332 -0.00461309 0.0
0.221873 -0.00647797 0.0
0.239775 -0.00287737 0.0
0.241777 -0.00103393 0.0
0.239335 0.000855039 0.0
0.161462 0.00671566 0.0
0.232432 0.00266833 0.0
0.205644 0.00551915 0.0
0.221087 0.00436008 0.0
0.185254 0.0067595 0.0
0 0 0.0
0.105884 -0.00426042 0.0
0.0587916 -0.00125638 0.0
0.164918 -0.00917809 0.0
0.139234 -0.00728509 0.0
0.0997024 0.00340415 0.0
0.134062 0.00573088 0.0
0 0 0.0
0.0543744 0.0010343 0.0
0.186868 -0.00957046 0.0
0.205878 -0.00853664 0.0
0.231525 -0.00532802 0.0
0.237817 -0.00330738 0.0
0.220275 -0.00745688 0.0
0.239736 -0.00115848 0.0
0.237298 0.00102956 0.0
0.230504 0.00314822 0.0
0.237678 -0.00245665 0.0
0.161986 0.00759936 0.0
0.219346 0.00511653 0.0
0.203937 0.00676378 0.0
0.184783 0.00750915 0.0
0 0 0.0
0.108936 -0.00441742 0.0
0.0612734 -0.00133622 0.0
0.165876 -0.00982987 0.0
0.141976 -0.00774378 0.0
0.102403 0.00364629 0.0
0.135739 0.00621036 0.0
0 0 0.0
0.0563188 0.00107619 0.0
0.186673 -0.0106214 0.0
0.204691 -0.00966044 0.0
0.22946 -0.00607136 0.0
0.218471 -0.00844103 0.0
0.234441 -0.00397617 0.0
0.237333 -4.74619e-05 0.0
0.232702 0.00236335 0.0
0.223812 0.00465753 0.0
0.236103 -0.00137469 0.0
0.162804 0.00830553 0.0
0.210744 0.00667885 0.0
0.198293 0.00792163 0.0
0.184114 0.00863906 0.0
0 0 0.0
0.112445 -0.00446485 0.0
0.0637577 -0.00134308 0.0
0.167412 -0.0104324 0.0
0.145041 -0.00797079 0.0
0.138396 0.00660976 0.0
0.105332 0.0037453 0.0
0 0 0.0
0.058575 0.00108356 0.0
0.186681 -0.0114802 0.0
0.20349 -0.0106911 0.0
0.231744 -0.00444339 0.0
0.216508 -0.0093769 0.0
0.227132 -0.00682522 0.0
0.233553 0.00129033 0.0
0.226832 0.00390634 0.0
0.21603 0.00629774 0.0
0.233271 -0.00154685 0.0
0.163911 0.00873156 0.0
0.201463 0.00819043 0.0
0.183748 0.00930072 0.0
0 0 0.0
0.0660148 -0.00131281 0.0
0.116015 -0.00436998 0.0
0.147881 -0.00795352 0.0
0.186961 -0.0120566 0.0
0.169279 -0.010753 0.0
0.141002 0.00668839 0.0
0.10834 0.00370143 0.0
0.0605467 0.00108872 0.0
0 0 0.0
0.2148 -0.0100705 0.0
0.202364 -0.0115436 0.0
0.229457 -0.00481092 0.0
0.224583 -0.00754227 0.0
0.213786 0.00687849 0.0
0.230735 0.00142696 0.0
0.22418 0.00430968 0.0
0.230155 -0.00174465 0.0
0.183627 0.00964245 0.0
0.165665 0.00882461 0.0
0.199571 0.00893159 0.0
0 0 0.0
0.0683965 -0.00120579 0.0
0.119851 -0.00412841 0.0
0.151316 -0.00771546 0.0
0.187391 -0.0122868 0.0
0.172004 -0.010717 0.0
0.143789 0.00648074 0.0
0.11163 0.0034623 0.0
0.0625119 0.00100699 0.0
0 0 0.0
0.146738 0.00597252 0.0
0.213096 -0.0106301 0.0
0.201088 -0.0122619 0.0
0.220708 -0.00839003 0.0
0.227033 -0.00515789 0.0
0.210645 0.00733975 0.0
0.22132 0.00459514 0.0
0.227655 0.0014882 0.0
0.226786 -0.00196949 0.0
0.183809 0.00961358 0.0
0.167496 0.00848065 0.0
0.19827 0.00912757 0.0
0 0 0.0
0.0705669 -0.00109465 0.0
0.123205 -0.00380766 0.0
0.154825 -0.00729059 0.0
0.188233 -0.0122557 0.0
0.174559 -0.0103492 0.0
0.0641677 0.000872343 0.0
0.114457 0.00308391 0.0
0 0 0.0
0.149133 0.00536776 0.0
0.211099 -0.0110825 0.0
0.200409 -0.0124343 0.0
0.217899 -0.00879973 0.0
0.223756 -0.00555654 0.0
0.208768 0.00734035 0.0
0.218339 0.00468764 0.0
0.223262 -0.0022456 0.0
0.222781 0.001395 0.0
0.184124 0.0093 0.0
0.169502 0.00776728 0.0
0.197166 0.00892878 0.0
0 0 0.0
0.0725772 -0.000988683 0.0
0.12626 -0.00345179 0.0
0.158733 -0.00661316 0.0
0.189679 -0.0117339 0.0
0.199969 -0.0122529 0.0
0.177251 -0.00973 0.0
0.06567 0.000706609 0.0
0.116986 0.00260124 0.0
0 0 0.0
0.15182 0.00446746 0.0
0.208615 -0.0112241 0.0
0.215653 -0.00899762 0.0
0.220416 -0.00588019 0.0
0.220572 -0.00247891 0.0
0.20697 0.00707754 0.0
0.215328 0.00451764 0.0
0.219342 0.00112965 0.0
0.171653 0.00671226 0.0
0.184792 0.00850032 0.0
0.19633 0.00829002 0.0
0 0 0.0
0.0743663 -0.000924313 0.0
0.12907 -0.00307814 0.0
0.161997 -0.00597008 0.0
0.190773 -0.0112257 0.0
0.199831 -0.0117714 0.0
0.179991 -0.00894569 0.0
0.0668787 0.000525021 0.0
0.119162 0.00204066 0.0
0 0 0.0
0.173268 0.00570528 0.0
0.12085 0.00146231 0.0
0.154503 0.00329581 0.0
0.20709 -0.0110144 0.0
0.213533 -0.00903721 0.0
0.215658 -0.0062052 0.0
0.217935 -0.00274162 0.0
0.21668 0.000805535 0.0
0.20497 0.00640881 0.0
0.211254 0.00376749 0.0
0.185883 0.00697005 0.0
0.195834 0.00740132 0.0
0.206017 -0.0106474 0.0
0 0 0.0
0.0759345 -0.000829787 0.0
0.16498 -0.00534618 0.0
0.131556 -0.00276275 0.0
0.199948 -0.0110802 0.0
0.192664 -0.0101602 0.0
0.182642 -0.00811554 0.0
0.0678495 0.000345801 0.0
0 0 0.0
0.18668 0.00581905 0.0
0.175214 0.00429106 0.0
0.156445 0.00222029 0.0
0.0682953 0.00022095 0.0
0.122108 0.000865958 0.0
0.211113 -0.00896802 0.0
0.21333 -0.00632742 0.0
0.214562 -0.00314883 0.0
0.212213 -0.00350671 0.0
0.214141 0.000352031 0.0
0.203231 0.00535487 0.0
0.208638 0.00286462 0.0
0.195493 0.00625666 0.0
0.205148 -0.0102103 0.0
0.0772527 -0.000782295 0.0
0 0 0.0
0.167255 -0.00489388 0.0
0.133761 -0.0025261 0.0
0.200247 -0.0103139 0.0
0.1939 -0.00951741 0.0
0.185139 -0.00735176 0.0
0 0 0.0
0.187625 0.00416631 0.0
0.177117 0.00254308 0.0
0.157638 0.00134876 0.0
0.0685964 6.03403e-05 0.0
0.122854 0.000335338 0.0
0.208196 -0.00867909 0.0
0.21117 -0.00642722 0.0
0.210083 -0.00390805 0.0
0.209786 -0.000765679 0.0
0.201757 0.00398989 0.0
0.206286 0.00170215 0.0
0.19522 0.00414427 0.0
0.204378 -0.00968474 0.0
0 0 0.0
0.0786291 -0.000741649 0.0
0.169668 -0.00452231 0.0
0.135572 -0.00241135 0.0
0.187394 -0.00675608 0.0
0.200717 -0.00961805 0.0
0.19582 -0.00855851 0.0
0 0 0.0
0 0 0.0
0.188504 0.00246528 0.0
0.178391 0.00112793 0.0
0.158666 0.000388056 0.0
0.123171 -0.000136559 0.0
0.0686029 -8.99859e-05 0.0
0.206573 -0.00848688 0.0
0.208729 -0.00659051 0.0
0.204667 0.000666383 0.0
0.207582 -0.00450433 0.0
0.207262 -0.00173276 0.0
0.200564 0.00241813 0.0
0.195144 0.00239538 0.0
0.205486 -0.00841084 0.0
0.203826 -0.00926492 0.0
0.0799929 -0.000752815 0.0
0.137442 -0.00238415 0.0
0.171879 -0.00436093 0.0
0.189098 -0.00646357 0.0
0.201252 -0.00910939 0.0
0.196956 -0.00819146 0.0
0 0 0.0
0 0 0.0
0.179014 0.000113306 0.0
0.189264 0.000448572 0.0
0.12309 -0.000495297 0.0
0.159208 -0.00055908 0.0
0.0683566 -0.000203947 0.0
0.205893 -0.00695786 0.0
0.2055 -0.00520442 0.0
0.195073 0.000654615 0.0
0.203242 -0.000441516 0.0
0.205548 -0.00254855 0.0
0.19925 0.000195724 0.0
0.204627 -0.00843745 0.0
0.203433 -0.00905063 0.0
0.20182 -0.0089005 0.0
0.0813924 -0.000840391 0.0
0.139325 -0.00251098 0.0
0.174147 -0.00449858 0.0
0.190964 -0.00634031 0.0
0.19865 -0.00793237 0.0
0 0 0.0
0 0 0.0
0.179536 -0.00122665 0.0
0.189651 -0.0010036 0.0
0.122691 -0.000868486 0.0
0.159211 -0.0012461 0.0
0.0679281 -0.000297158 0.0
0.204073 -0.00339998 0.0
0.203796 -0.00598486 0.0
0.204396 -0.00739797 0.0
0.194965 -0.000962391 0.0
0.201766 -0.00186487 0.0
0.198495 -0.00142204 0.0
0.189739 -0.00226571 0.0
0.203481 -0.00885478 0.0
0 0 0.0
0.203255 -0.00927952 0.0
0.199908 -0.00813491 0.0
0.202373 -0.00902963 0.0
0.0828484 -0.00095406 0.0
0.175841 -0.00481416 0.0
0.141475 -0.00286923 0.0
0.193022 -0.00671119 0.0
0 0 0.0
0 0 0.0
0 0 0.0
0 0 0.0
0 0 0.0
0.0673824 -0.000367275 0.0
0.15887 -0.00182506 0.0
0.179565 -0.00216279 0.0
0.122124 -0.00111975 0.0
0.202463 -0.00451706 0.0
0.202417 -0.00686522 0.0
0.203202 -0.00801237 0.0
0.1979 -0.00265839 0.0
0.194739 -0.0024275 0.0
0.200055 -0.00379705 0.0
0.19446 -0.00353451 0.0
0.189592 -0.0030837 0.0
0.202858 -0.00950266 0.0
0.203169 -0.00980166 0.0
0 0 0.0
-0.000203378 0.00014216 0.0
0 0 0.0
-0.000805067 0.00838916 0.0
0.202901 -0.00956809 0.0
0.200758 -0.00854922 0.0
0.0846968 -0.00114753 0.0
0.177786 -0.00542755 0.0
0.143644 -0.00339435 0.0
0.194657 -0.00743904 0.0
0 0 0.0
0 0 0.0
0 0 0.0
-0.000713031 0.00595757 0.0
-0.000430615 0.00107721 0.0
-0.00103425 0.00104354 0.0
0 0 0.0
0.0666488 -0.000434186 0.0
0.158315 -0.00222555 0.0
0.179221 -0.00294098 0.0
0.121128 -0.00136681 0.0
0.201145 -0.00566724 0.0
0.201258 -0.00784557 0.0
0.202221 -0.00880136 0.0
0.197335 -0.00380791 0.0
0.199252 -0.00485982 0.0
0.194047 -0.00451249 0.0
0.189034 -0.00425593 0.0
0.20233 -0.0104083 0.0
0.202941 -0.01059 0.0
0.2033 -0.0105096 0.0
0 0 0.0
-0.00107914 0.000435793 0.0
0 0 0.0
0 0 0.0
-0.00264363 0.0154315 0.0
-0.00301005 0.0120237 0.0
0.203118 -0.0102044 0.0
0.20177 -0.00948801 0.0
0.14585 -0.00404925 0.0
0.0867365 -0.00143195 0.0
0.179847 -0.00637746 0.0
0.196167 -0.00855462 0.0
0 0 0.0
-0.00191082 0.00477482 0.0
-0.00255517 0.00816465 0.0
-0.00207526 0.003014 0.0
-0.00306314 0.00206421 0.0
0 0 0.0
0.0658291 -0.000489929 0.0
0.157424 -0.00262766 0.0
0.178566 -0.00358645 0.0
0.120043 -0.00155616 0.0
0.200005 -0.00681748 0.0
0.200252 -0.008918 0.0
0.201368 -0.00978646 0.0
0.196393 -0.0055128 0.0
0.198481 -0.0058638 0.0
0.193416 -0.00554621 0.0
0.177725 -0.00415905 0.0
0.188366 -0.00505723 0.0
0.201906 -0.0113251 0.0
0.202979 -0.0114981 0.0
0.203582 -0.0114431 0.0
0 0 0.0
-0.00310448 0.000786519 0.0
0 0 0.0
0 0 0.0
0 0 0.0
0 0 0.0
-0.00604356 0.0121397 0.0
-0.000644017 0.0122374 0.0
-0.00248296 0.0181429 0.0
-0.00590944 0.0218872 0.0
-0.00561738 0.0170838 0.0
0 0 0.0
1.16833e-05 0.0149851 0.0
0.202873 -0.0112928 0.0
0.197409 -0.00977278 0.0
0 0 0.0
0.0895582 -0.0018804 0.0
0.148766 -0.00500126 0.0
0.18248 -0.00806451 0.0
0 0 0.0
0 0 0.0
-0.00486358 0.00772918 0.0
-0.00514727 0.0049355 0.0
-0.0061974 0.00290597 0.0
0 0 0.0
0.0648568 -0.000539962 0.0
0.156134 -0.0030217 0.0
0.118773 -0.00171651 0.0
0.17681 -0.00454352 0.0
0.198983 -0.00798144 0.0
0.199531 -0.00978774 0.0
0.200561 -0.0109739 0.0
0.19574 -0.00644642 0.0
0.197556 -0.00706537 0.0
0.192621 -0.00646439 0.0
0.187658 -0.0055817 0.0
0.203361 -0.012469 0.0
0.201435 -0.0124156 0.0
0.202654 -0.0135289 0.0
0.203828 -0.0136247 0.0
0.203605 -0.0133461 0.0