# vtk DataFile Version 3.0
Mesh NS-CD Problem
ASCII
DATASET UNSTRUCTURED_GRID
POINTS 10839 float
-2 0.3 0.0
-2 0.4 0.0
-2 0.35 0.0
-2 0.45 0.0
-2 0.5 0.0
-2 0.55 0.0
-2 0 0.0
-2 0.05 0.0
-2 0.85 0.0
-2 0.9 0.0
-2 0.1 0.0
-2 0.15 0.0
-2 0.25 0.0
-2 0.2 0.0
-1.96653 0.266667 0.0
-1.96524 0.415385 0.0
-1.96485 0.315 0.0
-1.96348 0.363636 0.0
-1.96414 0.464286 0.0
-2 0.6 0.0
-1.96538 0.584615 0.0
-1.96538 0.538462 0.0
-1.94979 0 0.0
-1.96653 0.0666666 0.0
-1.93306 0.0333333 0.0
-2 0.8 0.0
-2 0.75 0.0
-2 0.7 0.0
-2 0.65 0.0
-1.96249 0.7375 0.0
-1.96666 0.833333 0.0
-2 1 0.0
-2 0.95 0.0
-1.96249 0.8875 0.0
-1.96666 0.933333 0.0
-1.96234 0.1125 0.0
-1.96653 0.166667 0.0
-1.93724 0.225 0.0
-1.92971 0.28 0.0
-1.93048 0.380769 0.0
-1.93048 0.423077 0.0
-1.89958 0.3375 0.0
-1.9292 0.484203 0.0
-1.92117 0.530907 0.0
-1.96363 0.636364 0.0
-1.93076 0.576923 0.0
-1.89958 0 0.0
-1.88703 0.0375 0.0
-1.90963 0.08 0.0
-1.86611 0.0666666 0.0
-1.93749 0.775 0.0
-1.93635 0.672727 0.0
-1.92999 0.72 0.0
-1.93332 0.866667 0.0
-1.92856 0.821429 0.0
-1.94999 1 0.0
-1.92499 0.9625 0.0
-1.92499 0.925 0.0
-1.89998 0.9 0.0
-1.89958 0.125 0.0
-1.92827 0.178571 0.0
-1.89958 0.233333 0.0
-1.89045 0.290909 0.0
-1.86096 0.311538 0.0
-1.89241 0.392857 0.0
-1.89334 0.448489 0.0
-1.85655 0.357143 0.0
-1.89614 0.653846 0.0
-1.89427 0.504121 0.0
-1.8952 0.559753 0.0
-1.89614 0.615385 0.0
-1.84937 0 0.0
-1.83264 0.0333333 0.0
-1.85655 0.107143 0.0
-1.81172 0.075 0.0
-1.89998 0.766667 0.0
-1.89089 0.709091 0.0
-1.87498 0.85 0.0
-1.85998 0.79 0.0
-1.88748 0.8125 0.0
-1.89998 1 0.0
-1.88748 0.9625 0.0
-1.86664 0.933333 0.0
-1.85712 0.892857 0.0
-1.87448 0.15 0.0
-1.86611 0.194444 0.0
-1.83264 0.133333 0.0
-1.83264 0.2625 0.0
-1.82068 0.321429 0.0
-1.85664 0.404762 0.0
-1.85674 0.452381 0.0
-1.85683 0.5 0.0
-1.81184 0.375 0.0
-1.85712 0.642857 0.0
-1.85693 0.547619 0.0
-1.85702 0.595238 0.0
-1.79917 0 0.0
-1.78482 0.0357143 0.0
-1.79917 0.116667 0.0
-1.76569 0.0666666 0.0
-1.85452 0.745455 0.0
-1.82689 0.692308 0.0
-1.81815 0.781818 0.0
-1.82497 0.825 0.0
-1.84997 1 0.0
-1.8333 0.958333 0.0
-1.81247 0.8875 0.0
-1.81247 0.925 0.0
-1.81742 0.218182 0.0
-1.82427 0.175 0.0
-1.77634 0.145455 0.0
-1.79144 0.242308 0.0
-1.78482 0.285714 0.0
-1.77469 0.332653 0.0
-1.81215 0.529762 0.0
-1.81194 0.422619 0.0
-1.81203 0.470238 0.0
-1.76714 0.392857 0.0
-1.81234 0.625 0.0
-1.79732 0.571429 0.0
-1.74896 0 0.0
-1.73222 0.0333333 0.0
-1.75398 0.105 0.0
-1.71883 0.07 0.0
-1.79227 0.730769 0.0
-1.78007 0.679121 0.0
-1.75765 0.769231 0.0
-1.78178 0.818182 0.0
-1.78996 0.86 0.0
-1.79996 1 0.0
-1.78568 0.964286 0.0
-1.76663 0.922222 0.0
-1.76569 0.1875 0.0
-1.73222 0.15 0.0
-1.74896 0.25 0.0
-1.73714 0.304762 0.0
-1.76743 0.537202 0.0
-1.72869 0.343878 0.0
-1.76732 0.485119 0.0
-1.76723 0.440476 0.0
-1.72243 0.410714 0.0
-1.76757 0.607143 0.0
-1.69875 0 0.0
-1.68369 0.035 0.0
-1.69875 0.1125 0.0
-1.66528 0.075 0.0
-1.74341 0.708974 0.0
-1.73324 0.665934 0.0
-1.70441 0.74478 0.0
-1.71423 0.785714 0.0
-1.72303 0.826923 0.0
-1.74541 0.854545 0.0
-1.74541 0.890909 0.0
-1.74996 1 0.0
-1.73745 0.9625 0.0
-1.71359 0.927273 0.0
-1.68716 0.153846 0.0
-1.7131 0.214286 0.0
-1.70725 0.275 0.0
-1.69712 0.321939 0.0
-1.72279 0.589286 0.0
-1.72261 0.5 0.0
-1.7227 0.544643 0.0
-1.6827 0.355102 0.0
-1.67773 0.428571 0.0
-1.70763 0.464286 0.0
-1.70369 0.62449 0.0
-1.64854 0 0.0
-1.63181 0.0375 0.0
-1.64137 0.142857 0.0
-1.61764 0.0769231 0.0
-1.69458 0.703846 0.0
-1.67471 0.657437 0.0
-1.66143 0.727637 0.0
-1.67125 0.768571 0.0
-1.67851 0.821429 0.0
-1.68841 0.861538 0.0
-1.70904 0.890909 0.0
-1.69995 1 0.0
-1.68176 0.963636 0.0
-1.67267 0.927273 0.0
-1.65427 0.187143 0.0
-1.66718 0.231429 0.0
-1.66554 0.3 0.0
-1.67802 0.571429 0.0
-1.67792 0.523809 0.0
-1.6367 0.366327 0.0
-1.63682 0.423469 0.0
-1.62568 0.502976 0.0
-1.6629 0.470238 0.0
-1.65254 0.618367 0.0
-1.6059 0.307143 0.0
-1.59833 0 0.0
-1.58288 0.0384615 0.0
-1.60563 0.169643 0.0
-1.58179 0.112271 0.0
-1.56964 0.0714286 0.0
-1.64574 0.690385 0.0
-1.62827 0.751429 0.0
-1.63371 0.791071 0.0
-1.64279 0.857143 0.0
-1.65378 0.896154 0.0
-1.64994 1 0.0
-1.6363 0.963636 0.0
-1.61916 0.930769 0.0
-1.61345 0.209107 0.0
-1.62126 0.248571 0.0
-1.56989 0.196429 0.0
-1.63324 0.553571 0.0
-1.58846 0.535714 0.0
-1.59408 0.361905 0.0
-1.59161 0.402211 0.0
-1.58832 0.464286 0.0
-1.61504 0.598581 0.0
-1.59683 0.64359 0.0
-1.57899 0.274107 0.0
-1.56176 0.322381 0.0
-1.54812 0 0.0
-1.53378 0.0357143 0.0
-1.54593 0.147619 0.0
-1.53385 0.0732143 0.0
-1.53393 0.110714 0.0
-1.58522 0.704286 0.0
-1.58709 0.745 0.0
-1.58896 0.785714 0.0
-1.60695 0.830357 0.0
-1.60707 0.892857 0.0
-1.59993 1 0.0
-1.58454 0.965385 0.0
-1.57135 0.928571 0.0
-1.55209 0.241071 0.0
-1.5291 0.198214 0.0
-1.56936 0.570918 0.0
-1.54369 0.517857 0.0
-1.5464 0.380952 0.0
-1.54564 0.427721 0.0
-1.54488 0.47449 0.0
-1.55026 0.606122 0.0
-1.54222 0.677143 0.0
-1.52943 0.282857 0.0
-1.52143 0.33619 0.0
-1.49792 0 0.0
-1.49802 0.05 0.0
-1.49822 0.15 0.0
-1.49312 0.1 0.0
-1.5423 0.717143 0.0
-1.54419 0.767857 0.0
-1.54727 0.819048 0.0
-1.57122 0.861905 0.0
-1.53553 0.914286 0.0
-1.54992 1 0.0
-1.53563 0.964286 0.0
-1.49842 0.25 0.0
-1.48831 0.2 0.0
-1.5214 0.558929 0.0
-1.49891 0.5 0.0
-1.49871 0.4 0.0
-1.47631 0.45 0.0
-1.49911 0.6 0.0
-1.49921 0.65 0.0
-1.49931 0.7 0.0
-1.48111 0.35 0.0
-1.48351 0.3 0.0
-1.44771 0 0.0
-1.44782 0.05 0.0
-1.44804 0.15 0.0
-1.44793 0.1 0.0
-1.49941 0.75 0.0
-1.49951 0.8 0.0
-1.49981 0.95 0.0
-1.49961 0.85 0.0
-1.49971 0.9 0.0
-1.49991 1 0.0
-1.44826 0.25 0.0
-1.43815 0.2 0.0
-1.47151 0.55 0.0
-1.44881 0.5 0.0
-1.44859 0.4 0.0
-1.42619 0.45 0.0
-1.44913 0.65 0.0
-1.44902 0.6 0.0
-1.44935 0.75 0.0
-1.44924 0.7 0.0
-1.43972 0.35 0.0
-1.43336 0.3 0.0
-1.3975 0 0.0
-1.39762 0.05 0.0
-1.39786 0.15 0.0
-1.39274 0.1 0.0
-1.44957 0.85 0.0
-1.44946 0.8 0.0
-1.4523 0.95 0.0
-1.44968 0.9 0.0
-1.4499 1 0.0
-1.3981 0.25 0.0
-1.38798 0.2 0.0
-1.42141 0.55 0.0
-1.3987 0.5 0.0
-1.39834 0.35 0.0
-1.37845 0.4 0.0
-1.37607 0.45 0.0
-1.40784 0.65 0.0
-1.39894 0.6 0.0
-1.41185 0.75 0.0
-1.39918 0.7 0.0
-1.38322 0.3 0.0
-1.34729 0 0.0
-1.34492 0.05 0.0
-1.34018 0.15 0.0
-1.34255 0.1 0.0
-1.40707 0.85 0.0
-1.39941 0.8 0.0
-1.39977 0.95 0.0
-1.39965 0.9 0.0
-1.39989 1 0.0
-1.33781 0.2 0.0
-1.33544 0.25 0.0
-1.37131 0.55 0.0
-1.34859 0.5 0.0
-1.33833 0.4 0.0
-1.3307 0.35 0.0
-1.32595 0.45 0.0
-1.34885 0.6 0.0
-1.36655 0.65 0.0
-1.36179 0.75 0.0
-1.34911 0.7 0.0
-1.33307 0.3 0.0
-1.29708 0 0.0
-1.29722 0.05 0.0
-1.2975 0.15 0.0
-1.29236 0.1 0.0
-1.35703 0.85 0.0
-1.34937 0.8 0.0
-1.34988 1 0.0
-1.34962 0.9 0.0
-1.35226 0.95 0.0
-1.28528 0.25 0.0
-1.28764 0.2 0.0
-1.28931 0.35 0.0
-1.32121 0.55 0.0
-1.29848 0.5 0.0
-1.28709 0.45 0.0
-1.2982 0.4 0.0
-1.29876 0.6 0.0
-1.31647 0.65 0.0
-1.29918 0.75 0.0
-1.29904 0.7 0.0
-1.28292 0.3 0.0
-1.24687 0 0.0
-1.24702 0.05 0.0
-1.24717 0.1 0.0
-1.24732 0.15 0.0
-1.29946 0.85 0.0
-1.29932 0.8 0.0
-1.29987 1 0.0
-1.29974 0.95 0.0
-1.30462 0.9 0.0
-1.24762 0.25 0.0
-1.23747 0.2 0.0
-1.24792 0.35 0.0
-1.22807 0.4 0.0
-1.27111 0.55 0.0
-1.24837 0.5 0.0
-1.24822 0.45 0.0
-1.24867 0.6 0.0
-1.26639 0.65 0.0
-1.26167 0.75 0.0
-1.24897 0.7 0.0
-1.23277 0.3 0.0
-1.19667 0 0.0
-1.19683 0.05 0.0
-1.18964 0.15 0.0
-1.19198 0.1 0.0
-1.25695 0.85 0.0
-1.24927 0.8 0.0
-1.25223 0.95 0.0
-1.24987 1 0.0
-1.24957 0.9 0.0
-1.1873 0.2 0.0
-1.18496 0.25 0.0
-1.18028 0.35 0.0
-1.17794 0.4 0.0
-1.1981 0.45 0.0
-1.19842 0.55 0.0
-1.19826 0.5 0.0
-1.19858 0.6 0.0
-1.19874 0.65 0.0
-1.19906 0.75 0.0
-1.1989 0.7 0.0
-1.18262 0.3 0.0
-1.14646 0 0.0
-1.14663 0.05 0.0
-1.1418 0.1 0.0
-1.13713 0.2 0.0
-1.14697 0.15 0.0
-1.20691 0.85 0.0
-1.20926 0.8 0.0
-1.20221 0.95 0.0
-1.19986 1 0.0
-1.20456 0.9 0.0
-1.13997 0.3 0.0
-1.14731 0.25 0.0
-1.13781 0.4 0.0
-1.13014 0.35 0.0
-1.12548 0.45 0.0
-1.14815 0.5 0.0
-1.15962 0.55 0.0
-1.14849 0.6 0.0
-1.15745 0.65 0.0
-1.16155 0.75 0.0
-1.14917 0.8 0.0
-1.14883 0.7 0.0
-1.09625 0 0.0
-1.09661 0.1 0.0
-1.09393 0.05 0.0
-1.09697 0.2 0.0
-1.08929 0.15 0.0
-1.15687 0.85 0.0
-1.14985 1 0.0
-1.15219 0.95 0.0
-1.14951 0.9 0.0
-1.09733 0.3 0.0
-1.08465 0.25 0.0
-1.09769 0.4 0.0
-1.08 0.35 0.0
-1.08661 0.45 0.0
-1.09804 0.5 0.0
-1.12082 0.55 0.0
-1.10916 0.8 0.0
-1.10629 0.7 0.0
-1.0984 0.6 0.0
-1.11616 0.65 0.0
-1.11149 0.75 0.0
-1.04604 0 0.0
-1.04623 0.05 0.0
-1.04642 0.1 0.0
-1.0468 0.2 0.0
-1.03911 0.15 0.0
-1.09948 0.9 0.0
-1.0993 0.85 0.0
-1.09984 1 0.0
-1.09966 0.95 0.0
-1.04718 0.3 0.0
-1.03449 0.25 0.0
-1.04756 0.4 0.0
-1.02986 0.35 0.0
-1.04775 0.45 0.0
-1.04794 0.5 0.0
-1.04813 0.55 0.0
-1.05911 0.8 0.0
-1.04831 0.6 0.0
-1.06376 0.7 0.0
-1.0485 0.65 0.0
-1.04888 0.75 0.0
-0.995833 0 0.0
-0.991231 0.1 0.0
-0.996033 0.05 0.0
-0.986629 0.2 0.0
-0.98893 0.15 0.0
-1.05447 0.9 0.0
-1.04926 0.85 0.0
-1.04983 1 0.0
-1.04964 0.95 0.0
-0.984328 0.25 0.0
-0.99703 0.3 0.0
-0.997429 0.4 0.0
-0.997628 0.45 0.0
-0.979726 0.35 0.0
-0.997827 0.5 0.0
-0.998027 0.55 0.0
-0.998226 0.6 0.0
-0.961416 0.475 0.0
-1.00907 0.8 0.0
-0.998426 0.65 0.0
-0.998625 0.7 0.0
-1.01138 0.75 0.0
-0.945625 0 0.0
-0.946044 0.1 0.0
-0.943334 0.05 0.0
-0.946463 0.2 0.0
-0.938752 0.15 0.0
-1.00444 0.9 0.0
-1.00675 0.85 0.0
-0.999821 1 0.0
-1.00213 0.95 0.0
-0.93417 0.25 0.0
-0.946881 0.3 0.0
-0.9473 0.4 0.0
-0.929588 0.35 0.0
-0.925005 0.45 0.0
-0.960371 0.525 0.0
-0.959325 0.575 0.0
-0.958279 0.625 0.0
-0.922714 0.5 0.0
-0.959017 0.8 0.0
-0.957233 0.675 0.0
-0.952999 0.7125 0.0
-0.948766 0.75 0.0
-0.895417 0 0.0
-0.895855 0.1 0.0
-0.893136 0.05 0.0
-0.896294 0.2 0.0
-0.888573 0.15 0.0
-0.949184 0.85 0.0
-0.954415 0.9 0.0
-0.949812 1 0.0
-0.949603 0.95 0.0
-0.884011 0.25 0.0
-0.896733 0.3 0.0
-0.874887 0.45 0.0
-0.879449 0.35 0.0
-0.897171 0.4 0.0
-0.920423 0.55 0.0
-0.918132 0.6 0.0
-0.915841 0.65 0.0
-0.872606 0.5 0.0
-0.908968 0.8 0.0
-0.91355 0.7 0.0
-0.898707 0.75 0.0
-0.845208 0 0.0
-0.845438 0.05 0.0
-0.845667 0.1 0.0
-0.845896 0.15 0.0
-0.833853 0.25 0.0
-0.846126 0.2 0.0
-0.899146 0.85 0.0
-0.904386 0.9 0.0
-0.899584 0.95 0.0
-0.899804 1 0.0
-0.838062 0.35 0.0
[...]
POINT_DATA 10839
VECTORS Velocity float
0.21 0 0.0
0.24 0 0.0
0.2275 0 0.0
0.2475 0 0.0
0.25 0 0.0
0.2475 0 0.0
0 0 0.0
0.0475 0 0.0
0.1275 0 0.0
0.09 0 0.0
0.09 0 0.0
0.1275 0 0.0
0.1875 0 0.0
0.16 0 0.0
0.195557 -2.25719e-05 0.0
0.24284 -2.74617e-05 0.0
0.215776 -2.65988e-05 0.0
0.231405 -2.89405e-05 0.0
0.248724 -2.65395e-05 0.0
0.24 0 0.0
0.242839 -1.94603e-05 0.0
0.24852 -2.25531e-05 0.0
0 0 0.0
0.0622237 -3.79816e-06 0.0
0.0322266 -2.7095e-06 0.0
0.16 0 0.0
0.1875 0 0.0
0.21 0 0.0
0.2275 0 0.0
0.193593 -1.37881e-05 0.0
0.138888 -8.53903e-06 0.0
0 0 0.0
0.0475 0 0.0
0.0998425 -6.32365e-06 0.0
0.0622212 -2.71334e-06 0.0
0.099846 -9.76341e-06 0.0
0.138891 -1.37868e-05 0.0
0.17438 -3.58901e-05 0.0
0.201605 -4.98173e-05 0.0
0.235784 -5.64733e-05 0.0
0.244081 -5.53426e-05 0.0
0.223598 -8.10484e-05 0.0
0.249747 -5.07501e-05 0.0
0.24904 -5.06174e-05 0.0
0.231404 -1.78315e-05 0.0
0.244079 -3.81253e-05 0.0
0 0 0.0
0.0361075 -5.39911e-06 0.0
0.0736113 -1.40082e-05 0.0
0.062246 -1.4853e-05 0.0
0.174373 -1.88021e-05 0.0
0.220163 -2.56089e-05 0.0
0.201597 -2.46674e-05 0.0
0.115552 -1.27896e-05 0.0
0.14668 -1.83434e-05 0.0
0 0 0.0
0.0360899 -1.99838e-06 0.0
0.0693697 -6.66309e-06 0.0
0.0899906 -1.30326e-05 0.0
0.10939 -2.8652e-05 0.0
0.146691 -3.17275e-05 0.0
0.178902 -6.22098e-05 0.0
0.206292 -8.25655e-05 0.0
0.214496 -0.000114056 0.0
0.238519 -8.92905e-05 0.0
0.24734 -8.31924e-05 0.0
0.229596 -0.00012407 0.0
0.226324 -4.0961e-05 0.0
0.249973 -7.18261e-05 0.0
0.246419 -5.96017e-05 0.0
0.236678 -4.85016e-05 0.0
0 0 0.0
0.0322482 -4.87386e-06 0.0
0.095693 -3.07684e-05 0.0
0.0694198 -1.59669e-05 0.0
0.178884 -2.85941e-05 0.0
0.206274 -3.58036e-05 0.0
0.12749 -2.54144e-05 0.0
0.165892 -3.43881e-05 0.0
0.152337 -2.77934e-05 0.0
0 0 0.0
0.0360858 -2.58668e-06 0.0
0.0622067 -9.34307e-06 0.0
0.0956451 -2.15104e-05 0.0
0.127524 -4.45115e-05 0.0
0.156663 -6.86243e-05 0.0
0.1156 -4.7086e-05 0.0
0.193628 -0.000123833 0.0
0.218132 -0.00015853 0.0
0.240924 -0.000121874 0.0
0.247718 -0.000112953 0.0
0.24998 -9.86491e-05 0.0
0.234374 -0.000173137 0.0
0.229576 -5.26802e-05 0.0
0.247711 -8.22259e-05 0.0
0.24091 -6.61671e-05 0.0
0 0 0.0
0.0344751 -1.86946e-06 0.0
0.103118 -3.68639e-05 0.0
0.0622783 -5.41957e-07 0.0
0.189744 -3.75141e-05 0.0
0.213002 -4.52075e-05 0.0
0.17057 -3.93729e-05 0.0
0.144363 -3.75795e-05 0.0
0 0 0.0
0.0399113 -6.28659e-06 0.0
0.0998152 -3.58028e-05 0.0
0.0693415 -2.26674e-05 0.0
0.170633 -0.000111738 0.0
0.144427 -7.67389e-05 0.0
0.124389 -6.1711e-05 0.0
0.183662 -0.000151915 0.0
0.204132 -0.000189626 0.0
0.222018 -0.00022125 0.0
0.249073 -0.000113057 0.0
0.243992 -0.000163456 0.0
0.249081 -0.000143814 0.0
0.2385 -0.000227629 0.0
0.234343 -6.35222e-05 0.0
0.244851 -9.30808e-05 0.0
0 0 0.0
0.0322503 7.53048e-06 0.0
0.0940684 -1.48059e-05 0.0
0.0651642 2.41075e-05 0.0
0.196733 -3.65989e-05 0.0
0.217885 -4.08971e-05 0.0
0.177514 -3.21782e-05 0.0
0.148752 -4.67108e-05 0.0
0.120378 -4.79591e-05 0.0
0 0 0.0
0.0344037 -1.05419e-05 0.0
0.071671 -4.62334e-05 0.0
0.152451 -0.000117521 0.0
0.127655 -6.88556e-05 0.0
0.187603 -0.000207573 0.0
0.211944 -0.000272433 0.0
0.248543 -0.000125302 0.0
0.225644 -0.000299994 0.0
0.249713 -0.000171136 0.0
0.246408 -0.000204159 0.0
0.24197 -0.000286147 0.0
0.238459 -7.18417e-05 0.0
0 0 0.0
0.0337714 2.20013e-05 0.0
0.10001 6.34703e-06 0.0
0.0694494 5.61833e-05 0.0
0.206308 -1.71369e-05 0.0
0.222413 -2.15423e-05 0.0
0.190092 8.96432e-06 0.0
0.168394 -2.46065e-05 0.0
0.143138 -6.10829e-05 0.0
0.124285 -6.99287e-05 0.0
0.0971454 -7.46915e-05 0.0
0 0 0.0
0.0360191 -2.38222e-05 0.0
0.0673315 -8.05579e-05 0.0
0.130434 -8.3055e-05 0.0
0.16855 -0.000203485 0.0
0.199498 -0.000306999 0.0
0.218349 -0.000363747 0.0
0.241921 -7.93835e-05 0.0
0.249885 -0.000188292 0.0
0.247887 -0.000130312 0.0
0.229 -0.00039825 0.0
0.24477 -0.000343647 0.0
0.248607 -0.000249387 0.0
0.234397 -2.74447e-05 0.0
0 0 0.0
0.036028 3.73756e-05 0.0
0.122829 -7.16104e-05 0.0
0.0711002 6.16694e-05 0.0
0.208416 2.98211e-05 0.0
0.225115 3.56962e-05 0.0
0.198189 7.94254e-05 0.0
0.177927 3.0529e-05 0.0
0.146755 -5.11793e-05 0.0
0.119307 -0.000106272 0.0
0.0971419 -0.000106257 0.0
0 0 0.0
0.0348864 -4.13186e-05 0.0
0.0672773 -0.000113146 0.0
0.152479 -0.000215358 0.0
0.178129 -0.000324943 0.0
0.210116 -0.000435148 0.0
0.244719 -8.53646e-05 0.0
0.24924 -0.000176287 0.0
0.232074 -0.000516952 0.0
0.243952 -0.000436839 0.0
0.249676 -0.000248465 0.0
0.248915 -0.000292493 0.0
0.235808 2.14971e-05 0.0
0.212942 -0.000659129 0.0
0 0 0.0
0.0368539 3.5387e-05 0.0
0.141429 -0.000248077 0.0
0.100118 -6.04618e-05 0.0
0.0664139 2.7271e-05 0.0
0.213691 0.000112255 0.0
0.186863 0.000136942 0.0
0.165422 5.51145e-05 0.0
0.122541 -0.000104494 0.0
0.0929999 -0.000147262 0.0
0 0 0.0
0.0347872 -5.47418e-05 0.0
0.0641814 -0.000129746 0.0
0.165859 -0.000402428 0.0
0.187117 -0.0005066 0.0
0.158556 -0.000531316 0.0
0.246843 -0.000101559 0.0
0.24828 -0.000149586 0.0
0.230837 -0.000686546 0.0
0.240196 -0.000611113 0.0
0.24833 -0.000417604 0.0
0.239992 3.65057e-05 0.0
0.229147 0.000185171 0.0
0.199293 -0.000757615 0.0
0.218511 -0.000885715 0.0
0 0 0.0
0.0342801 9.04175e-06 0.0
0.126681 -0.000386444 0.0
0.0680448 -5.55292e-05 0.0
0.0991098 -0.000234067 0.0
0.208224 0.000304805 0.0
0.190086 0.000286459 0.0
0.168607 0.000194654 0.0
0.141095 9.065e-06 0.0
0.0956412 -0.000136569 0.0
0 0 0.0
0.0330456 -5.32206e-05 0.0
0.0660303 -0.000101655 0.0
0.18354 -0.000831302 0.0
0.15985 -0.000805201 0.0
0.244484 1.7704e-05 0.0
0.249021 -0.000225415 0.0
0.235545 -0.000861587 0.0
0.244289 -0.000680379 0.0
0.248732 -0.000457876 0.0
0.238252 0.000215216 0.0
0.218396 0.000476168 0.0
0.203185 -0.001099 0.0
0.223085 -0.00112834 0.0
0 0 0.0
0.0475232 -6.86023e-05 0.0
0.128683 -0.000771062 0.0
0.0907961 -0.000414241 0.0
0.20285 0.000525799 0.0
0.178538 0.000462766 0.0
0.148653 0.000282425 0.0
0.119276 5.23612e-06 0.0
0.0782449 -1.20996e-06 0.0
0 0 0.0
0.0339759 -3.77533e-05 0.0
0.188182 -0.00130532 0.0
0.161141 -0.00120438 0.0
0.245771 3.98774e-05 0.0
0.249063 -0.000350702 0.0
0.239407 -0.0010353 0.0
0.246514 -0.000793411 0.0
0.23922 0.000363772 0.0
0.226979 0.000630896 0.0
0.209838 0.000806538 0.0
0.227189 -0.00139484 0.0
0.210183 -0.00150229 0.0
0 0 0.0
0.0478522 -0.000208583 0.0
0.129107 -0.00137359 0.0
0.091262 -0.000785596 0.0
0.187741 0.000829831 0.0
0.160579 0.00071585 0.0
0.0470864 2.06534e-05 0.0
0.128119 0.000492011 0.0
0.0901862 0.000225063 0.0
0 0 0.0
0.188298 -0.00188902 0.0
0.161413 -0.00187112 0.0
0.246359 6.22716e-05 0.0
0.248615 -0.000400731 0.0
0.239068 -0.00134076 0.0
0.246018 -0.000996941 0.0
0.226703 0.00098259 0.0
0.238843 0.000591876 0.0
0.187763 0.00136069 0.0
0.209689 0.00125335 0.0
0.226991 -0.0017689 0.0
0.210091 -0.00206574 0.0
0 0 0.0
0.048482 -0.0004012 0.0
0.129641 -0.00218429 0.0
0.0922038 -0.00140404 0.0
0.128417 0.00107173 0.0
0.160739 0.00129448 0.0
0.047304 0.000151985 0.0
0.0905819 0.000620695 0.0
0 0 0.0
0.188331 -0.00266288 0.0
0.161651 -0.0027589 0.0
0.245847 0.000179012 0.0
0.24802 -0.000444119 0.0
0.22669 -0.00221589 0.0
0.238367 -0.00190342 0.0
0.245388 -0.00123068 0.0
0.226373 0.00134367 0.0
0.238318 0.000885222 0.0
0.187711 0.0018748 0.0
0.209435 0.00184557 0.0
0.209889 -0.00276894 0.0
0 0 0.0
0.0495056 -0.000627069 0.0
0.130485 -0.00334318 0.0
0.0934707 -0.00207197 0.0
0.128739 0.00172159 0.0
0.160854 0.00209042 0.0
0.0478339 0.000332659 0.0
0.0912543 0.00114423 0.0
0 0 0.0
0.161855 -0.0038548 0.0
0.188218 -0.0038956 0.0
0.245157 0.000320188 0.0
0.247222 -0.000498358 0.0
0.237779 -0.00229023 0.0
0.225985 -0.0031021 0.0
0.244537 -0.00150704 0.0
0.237612 0.00124597 0.0
0.225931 0.00178077 0.0
0.187544 0.00272965 0.0
0.209025 0.00257816 0.0
0.209534 -0.00363509 0.0
0 0 0.0
0.0507984 -0.000835283 0.0
0.131288 -0.00428511 0.0
0.0952142 -0.00278086 0.0
0.129273 0.00264744 0.0
0.160923 0.00309503 0.0
0 0 0.0
0.0923507 0.00177739 0.0
0.0486207 0.000524135 0.0
0.187938 -0.00510556 0.0
0.16205 -0.00513083 0.0
0.225349 -0.00375659 0.0
0.244261 0.000495498 0.0
0.246206 -0.000556061 0.0
0.243715 -0.00174862 0.0
0.237072 -0.00272425 0.0
0.236684 0.00167089 0.0
0.225225 0.00240407 0.0
0.18712 0.00406065 0.0
0.208419 0.00344995 0.0
0.208989 -0.0046385 0.0
0 0 0.0
0.0526207 -0.00105166 0.0
0.097193 -0.0034003 0.0
0.13252 -0.00542587 0.0
0.130162 0.00386925 0.0
0.160957 0.00427048 0.0
0 0 0.0
0.0499002 0.000746281 0.0
0.0936905 0.00239477 0.0
0.187632 -0.00609153 0.0
0.162289 -0.006493 0.0
0.224563 -0.0044894 0.0
0.235454 -0.00359723 0.0
0.243115 0.000696167 0.0
0.244921 -0.000614862 0.0
0.242743 -0.00202157 0.0
0.235504 0.00215869 0.0
0.224279 0.00312976 0.0
0.186708 0.00496342 0.0
0.207587 0.00445936 0.0
0.208215 -0.00578215 0.0
0 0 0.0
0.0547956 -0.00121916 0.0
0.134524 -0.00668499 0.0
0.10025 -0.00409409 0.0
0.131035 0.00479702 0.0
0.161013 0.00556349 0.0
0.0514678 0.000945026 0.0
0 0 0.0
0.0958616 0.0031286 0.0
0.162645 -0.00788296 0.0
0.187014 -0.00788475 0.0
0.222886 -0.00582709 0.0
0.233925 -0.00430871 0.0
0.241215 -0.00241082 0.0
0.240963 0.00103916 0.0
0.243342 -0.000695296 0.0
0.234034 0.00270247 0.0
0.222583 0.00426806 0.0
0.185909 0.00662165 0.0
0.2065 0.00558047 0.0
0.207215 -0.00705042 0.0
0 0 0.0
0.0573124 -0.00137436 0.0
0.103406 -0.00459478 0.0
0.163236 -0.0092149 0.0
0.136257 -0.00751788 0.0
0.132431 0.00585531 0.0
0.161103 0.00660601 0.0
0.0534308 0.00111762 0.0
0 0 0.0
0.098051 0.00365132 0.0
0.206179 -0.00821051 0.0
0.186571 -0.00896379 0.0
0.232487 -0.00493952 0.0
0.221286 -0.00691983 0.0
0.238445 -0.00303071 0.0
0.241436 -0.000779732 0.0
0.239506 0.00124055 0.0
0.232246 0.00330142 0.0
0.221253 0.00502901 0.0
0.185315 0.00762541 0.0
0.161509 0.00814867 0.0
0.205182 0.00678233 0.0
0 0 0.0
0.106692 -0.00489695 0.0
0.0600697 -0.00150715 0.0
0.16396 -0.0101901 0.0
0.139274 -0.00837769 0.0
0.134245 0.00678927 0.0
0 0 0.0
0.0556789 0.00123891 0.0
0.101274 0.00416839 0.0
0.205026 -0.00937096 0.0
0.185916 -0.0107058 0.0
0.230824 -0.00558929 0.0
0.219409 -0.00806796 0.0
0.236626 -0.0033981 0.0
0.239163 -0.000874044 0.0
0.237871 0.00144865 0.0
0.161935 0.00903091 0.0
0.203867 0.00783785 0.0
0.230098 0.00394006 0.0
0.21974 0.00581092 0.0
0.184578 0.00892486 0.0
0 0 0.0
0.0626783 -0.00153075 0.0
0.110502 -0.00507164 0.0
0.16516 -0.0111313 0.0
0.142329 -0.00882678 0.0
0.104548 0.00446848 0.0
0.136806 0.0075798 0.0
0 0 0.0
0.0582861 0.00131635 0.0
0.203563 -0.0106945 0.0
0.185541 -0.0119074 0.0
0.228449 -0.00644404 0.0
0.21727 -0.00920194 0.0
0.234609 -0.00377986 0.0
0.236522 -0.00098378 0.0
0.234188 0.00186146 0.0
0.162867 0.00992565 0.0
0.227608 0.00459008 0.0
0.202488 0.00884951 0.0
0.216823 0.0071132 0.0
0.183745 0.0103242 0.0
0 0 0.0
0.114877 -0.00500922 0.0
0.0656333 -0.00145896 0.0
0.167206 -0.0118025 0.0
0.145794 -0.00894939 0.0
0.107727 0.00455774 0.0
0.139563 0.00795143 0.0
0 0 0.0
0.0606696 0.00137867 0.0
0.185454 -0.0128162 0.0
0.20208 -0.0118495 0.0
0.225731 -0.00728065 0.0
0.231664 -0.00427998 0.0
0.21495 -0.0102396 0.0
0.233475 -0.00110304 0.0
0.231174 0.00211215 0.0
0.224768 0.00520466 0.0
0.230688 -0.00292869 0.0
0.164168 0.0104275 0.0
0.214352 0.00798608 0.0
0.200277 0.0101303 0.0
0.18342 0.0109424 0.0
0 0 0.0
0.118489 -0.00478575 0.0
0.0683895 -0.00141948 0.0
0.16892 -0.0119079 0.0
0.149518 -0.00874821 0.0
0.111318 0.00443671 0.0
0.142178 0.00801274 0.0
0 0 0.0
0.0630995 0.00129522 0.0
0.185711 -0.0133056 0.0
0.200694 -0.0127142 0.0
0.222757 -0.00803712 0.0
0.212543 -0.0110615 0.0
0.226804 -0.00495413 0.0
0.230325 0.000541179 0.0
0.225981 0.00396812 0.0
0.217761 0.00713563 0.0
0.228257 -0.00131922 0.0
0.1659 0.0104873 0.0
0.205967 0.00972238 0.0
0.195084 0.0110428 0.0
0.183254 0.0114775 0.0
0 0 0.0
0.12231 -0.00440355 0.0
0.0708892 -0.00129321 0.0
0.17139 -0.011643 0.0
0.153363 -0.00823744 0.0
0.145991 0.00766578 0.0
0.114881 0.00411152 0.0
0 0 0.0
0.0656411 0.00115214 0.0
0.18636 -0.0133124 0.0
0.199522 -0.013174 0.0
0.223148 -0.00531356 0.0
0.210173 -0.0115602 0.0
0.219605 -0.00862063 0.0
0.225855 0.00237346 0.0
0.21971 0.00588166 0.0
0.210105 0.00887522 0.0
0.224416 -0.00149808 0.0
0.167995 0.0100622 0.0
0.197689 0.0108868 0.0
0.183549 0.0113265 0.0
0 0 0.0
0.0729374 -0.00115689 0.0
0.125881 -0.00391556 0.0
0.156623 -0.00759413 0.0
0.187364 -0.0128211 0.0
0.17412 -0.0109855 0.0
0.149411 0.0069942 0.0
0.118218 0.00364371 0.0
0.0676038 0.00103556 0.0
0 0 0.0
0.208315 -0.0116719 0.0
0.198658 -0.0131638 0.0
0.220249 -0.00552043 0.0
0.216426 -0.00896257 0.0
0.207567 0.00889816 0.0
0.222108 0.00237333 0.0
0.216358 0.00596932 0.0
0.220472 -0.00171079 0.0
0.184183 0.0106053 0.0
0.17079 0.00895174 0.0
0.196145 0.0105091 0.0
0 0 0.0
0.074936 -0.000963759 0.0
0.129329 -0.00334617 0.0
0.160231 -0.00668931 0.0
0.188352 -0.0121764 0.0
0.177593 -0.00978486 0.0
0.152691 0.00604367 0.0
0.121475 0.00296938 0.0
0.0693436 0.000838257 0.0
0 0 0.0
0.155783 0.00487682 0.0
0.20664 -0.0114965 0.0
0.197978 -0.0124518 0.0
0.2121 -0.00895185 0.0
0.217369 -0.00564431 0.0
0.204455 0.00816783 0.0
0.213051 0.00570804 0.0
0.218312 0.00217297 0.0
0.216573 -0.00195579 0.0
0.185143 0.00938664 0.0
0.173294 0.00761275 0.0
0.195365 0.00957725 0.0
0 0 0.0
0.0766003 -0.000802709 0.0
0.132064 -0.0028329 0.0
0.163564 -0.00577739 0.0
0.189815 -0.0110485 0.0
0.180448 -0.00861331 0.0
0.0705961 0.000623393 0.0
0.123943 0.00228687 0.0
0 0 0.0
0.158005 0.00384487 0.0
0.204915 -0.0109539 0.0
0.197872 -0.0114918 0.0
0.209386 -0.00862963 0.0
0.213819 -0.00568499 0.0
0.20284 0.00730845 0.0
0.209931 0.00507615 0.0
0.212903 -0.00226853 0.0
0.212942 0.00151059 0.0
0.185951 0.00821736 0.0
0.175624 0.00605605 0.0
0.194851 0.00818314 0.0
0 0 0.0
0.0780378 -0.000683076 0.0
0.134337 -0.0024062 0.0
0.166874 -0.00478181 0.0
0.191749 -0.00943867 0.0
0.197979 -0.0103352 0.0
0.183083 -0.00744507 0.0
0.0716073 0.000408341 0.0
0.125842 0.00161231 0.0
0 0 0.0
0.160191 0.00263778 0.0
0.203081 -0.00981717 0.0
0.207435 -0.00825223 0.0
0.210586 -0.00563982 0.0
0.210378 -0.00253014 0.0
0.201427 0.0061722 0.0
0.207113 0.00411361 0.0
0.209656 0.000799174 0.0
0.177753 0.00440034 0.0
0.187096 0.00643945 0.0
0.194606 0.00646865 0.0
0 0 0.0
0.0792404 -0.000631414 0.0
0.136307 -0.00207402 0.0
0.16938 -0.00409929 0.0
0.192962 -0.00852134 0.0
0.198296 -0.00917253 0.0
0.185474 -0.00640473 0.0
0.0722419 0.000212272 0.0
0.127225 0.000975165 0.0
0 0 0.0
0.179103 0.00312704 0.0
0.128052 0.000426369 0.0
0.161999 0.00137496 0.0
0.202183 -0.00891303 0.0
0.205778 -0.00780592 0.0
0.206652 -0.00552619 0.0
0.208127 -0.00282394 0.0
0.207359 0.00014983 0.0
0.200015 0.00457989 0.0
0.203791 0.00234504 0.0
0.188419 0.0041084 0.0
0.194541 0.00487342 0.0
0.201634 -0.00820834 0.0
0 0 0.0
0.0802986 -0.000578309 0.0
0.171495 -0.00362094 0.0
0.13798 -0.00188155 0.0
0.198742 -0.00816353 0.0
0.194755 -0.00720954 0.0
0.187547 -0.00560674 0.0
0.0726074 4.9243e-05 0.0
0 0 0.0
0.189151 0.00275403 0.0
0.180497 0.00164655 0.0
0.163049 0.000420518 0.0
0.0725357 -4.84928e-05 0.0
0.12848 -5.49564e-05 0.0
0.204103 -0.007317 0.0
0.204994 -0.00551013 0.0
0.205552 -0.00327663 0.0
0.203952 -0.00367123 0.0
0.205373 -0.000572438 0.0
0.198913 0.00287259 0.0
0.201939 0.000953374 0.0
0.194511 0.00327853 0.0
0.201256 -0.00765223 0.0
0.0812185 -0.000580513 0.0
0 0 0.0
0.173032 -0.0033859 0.0
0.139463 -0.00181712 0.0
0.19923 -0.00742216 0.0
0.19578 -0.00666038 0.0
0.189347 -0.00509956 0.0
0 0 0.0
0.189829 0.00111341 0.0
0.181531 0.000138196 0.0
0.163474 -0.000251525 0.0
0.0724057 -0.000162357 0.0
0.128481 -0.000433515 0.0
0.20239 -0.0068466 0.0
0.203602 -0.0055492 0.0
0.202621 -0.00410101 0.0
0.202383 -0.00198603 0.0
0.198035 0.00118266 0.0
0.200425 -0.000444734 0.0
0.194501 0.000987296 0.0
0.201021 -0.00724455 0.0
0 0 0.0
0.0822702 -0.000603787 0.0
0.174649 -0.00333941 0.0
0.140744 -0.00187829 0.0
0.190875 -0.00490702 0.0
0.199765 -0.00702403 0.0
0.197239 -0.00614521 0.0
0 0 0.0
0 0 0.0
0.190279 -0.000309455 0.0
0.182028 -0.000904299 0.0
0.16368 -0.000914179 0.0
0.128183 -0.000737084 0.0
0.0720531 -0.000262802 0.0
0.201582 -0.00678193 0.0
0.202186 -0.00574619 0.0
0.199458 -0.00150409 0.0
0.201199 -0.00473509 0.0
0.200861 -0.00299289 0.0
0.197346 -0.000397041 0.0
0.194438 -0.000551817 0.0
0.201098 -0.00692089 0.0
0.200899 -0.00715476 0.0
0.0834188 -0.000675559 0.0
0.142166 -0.00204259 0.0
0.176188 -0.00352576 0.0
0.192034 -0.00498719 0.0
0.200281 -0.00698071 0.0
0.198044 -0.00615349 0.0
0 0 0.0
0 0 0.0
0.182062 -0.00158205 0.0
0.190429 -0.00176677 0.0
0.127668 -0.00095315 0.0
0.163424 -0.00150884 0.0
0.0715319 -0.000332489 0.0
0.200745 -0.00631054 0.0
0.200099 -0.00546649 0.0
0.194279 -0.00188546 0.0
0.198634 -0.00250857 0.0
0.199896 -0.00376628 0.0
0.196542 -0.0022651 0.0
0.200747 -0.00720975 0.0
0.200926 -0.00756105 0.0
0.200771 -0.00731774 0.0
0.0847077 -0.000818891 0.0
0.143753 -0.00235134 0.0
0.177865 -0.00404806 0.0
0.193312 -0.0053329 0.0
0.199231 -0.00657143 0.0
0 0 0.0
0 0 0.0
0.181831 -0.00242227 0.0
0.19032 -0.00272268 0.0
0.126891 -0.00117591 0.0
0.162891 -0.00192316 0.0
0.0709001 -0.000385936 0.0
0.199095 -0.00453278 0.0
0.199229 -0.00627374 0.0
0.200021 -0.00695368 0.0
0.194008 -0.0030171 0.0
0.197787 -0.00368533 0.0
0.196009 -0.00347512 0.0
0.189978 -0.00352834 0.0
0.200278 -0.00814518 0.0
0 0 0.0
0.200941 -0.00828024 0.0
0.200123 -0.00729819 0.0
0.201218 -0.00798508 0.0
0.0861538 -0.000984268 0.0
0.179258 -0.00462353 0.0
0.145738 -0.00289417 0.0
0.194808 -0.00622627 0.0
0 0 0.0
0 0 0.0
0 0 0.0
0 0 0.0
0 0 0.0
0.0702305 -0.000428257 0.0
0.162173 -0.00228008 0.0
0.181365 -0.00300012 0.0
0.126106 -0.00132986 0.0
0.198214 -0.00550611 0.0
0.198495 -0.00718632 0.0
0.199445 -0.0077773 0.0
0.195532 -0.00435441 0.0
0.193587 -0.00399711 0.0
0.196736 -0.00518954 0.0
0.193141 -0.00473819 0.0
0.189552 -0.00405452 0.0
0.199969 -0.00914673 0.0
0.20097 -0.00925488 0.0
0 0 0.0
-0.000288965 0.000186241 0.0
0 0 0.0
-0.000826147 0.00891566 0.0
0.201629 -0.00902331 0.0
0.200747 -0.0080684 0.0
0.0880845 -0.00123367 0.0
0.180966 -0.00550507 0.0
0.147879 -0.00357583 0.0
0.196108 -0.00734171 0.0
0 0 0.0
0 0 0.0
0 0 0.0
-0.000728195 0.00642344 0.0
-0.000485247 0.00130749 0.0
-0.0012135 0.00123597 0.0
0 0 0.0
0.0694119 -0.000473777 0.0
0.16138 -0.0025377 0.0
0.18065 -0.00349976 0.0
0.124939 -0.00149366 0.0
0.197449 -0.00650626 0.0
0.197808 -0.00820361 0.0
0.198907 -0.00877235 0.0
0.195023 -0.00517395 0.0
0.196171 -0.00601662 0.0
0.19257 -0.00541305 0.0
0.188635 -0.00485 0.0
0.199643 -0.0103667 0.0
0.200632 -0.0104361 0.0
0.201505 -0.0103092 0.0
0 0 0.0
-0.00132152 0.000503164 0.0
0 0 0.0
0 0 0.0
-0.00271945 0.0160776 0.0
-0.00305385 0.0126165 0.0
0.201989 -0.0100483 0.0
0.201512 -0.00943625 0.0
0.150146 -0.00437298 0.0
0.0902835 -0.00157691 0.0
0.182898 -0.00670604 0.0
0.197375 -0.00880452 0.0
0 0 0.0
-0.00200563 0.00525988 0.0
-0.00261375 0.0087276 0.0
-0.00226486 0.00338627 0.0
-0.00342662 0.00227829 0.0
0 0 0.0
0.068538 -0.000515034 0.0
0.160304 -0.00281788 0.0
0.179726 -0.00394194 0.0
0.123761 -0.0016324 0.0
0.196702 -0.00752948 0.0
0.19711 -0.00931846 0.0
0.198345 -0.00994682 0.0
0.194087 -0.00642605 0.0
0.195574 -0.00681348 0.0
0.191767 -0.00617314 0.0
0.178711 -0.00437555 0.0
0.187749 -0.00544477 0.0
0.199303 -0.0115082 0.0
0.200827 -0.0115946 0.0
0.202107 -0.0116113 0.0
0 0 0.0
-0.00353334 0.000846416 0.0
0 0 0.0
0 0 0.0
0 0 0.0
0 0 0.0
-0.00611104 0.0125668 0.0
-0.000710068 0.0129673 0.0
-0.00261163 0.0188768 0.0
-0.00606508 0.0222909 0.0
-0.00567634 0.0175206 0.0
0 0 0.0
-6.88883e-05 0.0166121 0.0
0.202365 -0.011711 0.0
0.198477 -0.0102847 0.0
0 0 0.0
0.0933903 -0.00210721 0.0
0.153225 -0.00549104 0.0
0.185496 -0.00870115 0.0
0 0 0.0
0 0 0.0
-0.00502989 0.00818634 0.0
-0.00545985 0.00526519 0.0
-0.00669127 0.00305372 0.0
0 0 0.0
0.0675312 -0.000555347 0.0
0.158887 -0.00312304 0.0
0.122438 -0.00176124 0.0
0.177688 -0.0046859 0.0
0.195926 -0.00859713 0.0
0.196532 -0.0102256 0.0
0.197705 -0.011305 0.0
0.193394 -0.00715452 0.0
0.19477 -0.00780841 0.0
0.190824 -0.00689778 0.0
0.186914 -0.00586019 0.0
0.201462 -0.0128137 0.0
0.198862 -0.0127989 0.0
0.200441 -0.0140461 0.0
0.202187 -0.0142447 0.0
0.202927 -0.0141241 0.0
0 0 0.0
-0.00550219 0.000928861 0.0