# vtk DataFile Version 3.0
Mesh NS-CD Problem
ASCII
DATASET UNSTRUCTURED_GRID
POINTS 10839 float
-2 0.3 0.0
-2 0.4 0.0
-2 0.35 0.0
-2 0.45 0.0
-2 0.5 0.0
-2 0.55 0.0
-2 0 0.0
-2 0.05 0.0
-2 0.85 0.0
-2 0.9 0.0
-2 0.1 0.0
-2 0.15 0.0
-2 0.25 0.0
-2 0.2 0.0
-1.96653 0.266667 0.0
-1.96524 0.415385 0.0
-1.96485 0.315 0.0
-1.96348 0.363636 0.0
-1.96414 0.464286 0.0
-2 0.6 0.0
-1.96538 0.584615 0.0
-1.96538 0.538462 0.0
-1.94979 0 0.0
-1.96653 0.0666666 0.0
-1.93306 0.0333333 0.0
-2 0.8 0.0
-2 0.75 0.0
-2 0.7 0.0
-2 0.65 0.0
-1.96249 0.7375 0.0
-1.96666 0.833333 0.0
-2 1 0.0
-2 0.95 0.0
-1.96249 0.8875 0.0
-1.96666 0.933333 0.0
-1.96234 0.1125 0.0
-1.96653 0.166667 0.0
-1.93724 0.225 0.0
-1.92971 0.28 0.0
-1.93048 0.380769 0.0
-1.93048 0.423077 0.0
-1.89958 0.3375 0.0
-1.9292 0.484203 0.0
-1.92117 0.530907 0.0
-1.96363 0.636364 0.0
-1.93076 0.576923 0.0
-1.89958 0 0.0
-1.88703 0.0375 0.0
-1.90963 0.08 0.0
-1.86611 0.0666666 0.0
-1.93749 0.775 0.0
-1.93635 0.672727 0.0
-1.92999 0.72 0.0
-1.93332 0.866667 0.0
-1.92856 0.821429 0.0
-1.94999 1 0.0
-1.92499 0.9625 0.0
-1.92499 0.925 0.0
-1.89998 0.9 0.0
-1.89958 0.125 0.0
-1.92827 0.178571 0.0
-1.89958 0.233333 0.0
-1.89045 0.290909 0.0
-1.86096 0.311538 0.0
-1.89241 0.392857 0.0
-1.89334 0.448489 0.0
-1.85655 0.357143 0.0
-1.89614 0.653846 0.0
-1.89427 0.504121 0.0
-1.8952 0.559753 0.0
-1.89614 0.615385 0.0
-1.84937 0 0.0
-1.83264 0.0333333 0.0
-1.85655 0.107143 0.0
-1.81172 0.075 0.0
-1.89998 0.766667 0.0
-1.89089 0.709091 0.0
-1.87498 0.85 0.0
-1.85998 0.79 0.0
-1.88748 0.8125 0.0
-1.89998 1 0.0
-1.88748 0.9625 0.0
-1.86664 0.933333 0.0
-1.85712 0.892857 0.0
-1.87448 0.15 0.0
-1.86611 0.194444 0.0
-1.83264 0.133333 0.0
-1.83264 0.2625 0.0
-1.82068 0.321429 0.0
-1.85664 0.404762 0.0
-1.85674 0.452381 0.0
-1.85683 0.5 0.0
-1.81184 0.375 0.0
-1.85712 0.642857 0.0
-1.85693 0.547619 0.0
-1.85702 0.595238 0.0
-1.79917 0 0.0
-1.78482 0.0357143 0.0
-1.79917 0.116667 0.0
-1.76569 0.0666666 0.0
-1.85452 0.745455 0.0
-1.82689 0.692308 0.0
-1.81815 0.781818 0.0
-1.82497 0.825 0.0
-1.84997 1 0.0
-1.8333 0.958333 0.0
-1.81247 0.8875 0.0
-1.81247 0.925 0.0
-1.81742 0.218182 0.0
-1.82427 0.175 0.0
-1.77634 0.145455 0.0
-1.79144 0.242308 0.0
-1.78482 0.285714 0.0
-1.77469 0.332653 0.0
-1.81215 0.529762 0.0
-1.81194 0.422619 0.0
-1.81203 0.470238 0.0
-1.76714 0.392857 0.0
-1.81234 0.625 0.0
-1.79732 0.571429 0.0
-1.74896 0 0.0
-1.73222 0.0333333 0.0
-1.75398 0.105 0.0
-1.71883 0.07 0.0
-1.79227 0.730769 0.0
-1.78007 0.679121 0.0
-1.75765 0.769231 0.0
-1.78178 0.818182 0.0
-1.78996 0.86 0.0
-1.79996 1 0.0
-1.78568 0.964286 0.0
-1.76663 0.922222 0.0
-1.76569 0.1875 0.0
-1.73222 0.15 0.0
-1.74896 0.25 0.0
-1.73714 0.304762 0.0
-1.76743 0.537202 0.0
-1.72869 0.343878 0.0
-1.76732 0.485119 0.0
-1.76723 0.440476 0.0
-1.72243 0.410714 0.0
-1.76757 0.607143 0.0
-1.69875 0 0.0
-1.68369 0.035 0.0
-1.69875 0.1125 0.0
-1.66528 0.075 0.0
-1.74341 0.708974 0.0
-1.73324 0.665934 0.0
-1.70441 0.74478 0.0
-1.71423 0.785714 0.0
-1.72303 0.826923 0.0
-1.74541 0.854545 0.0
-1.74541 0.890909 0.0
-1.74996 1 0.0
-1.73745 0.9625 0.0
-1.71359 0.927273 0.0
-1.68716 0.153846 0.0
-1.7131 0.214286 0.0
-1.70725 0.275 0.0
-1.69712 0.321939 0.0
-1.72279 0.589286 0.0
-1.72261 0.5 0.0
-1.7227 0.544643 0.0
-1.6827 0.355102 0.0
-1.67773 0.428571 0.0
-1.70763 0.464286 0.0
-1.70369 0.62449 0.0
-1.64854 0 0.0
-1.63181 0.0375 0.0
-1.64137 0.142857 0.0
-1.61764 0.0769231 0.0
-1.69458 0.703846 0.0
-1.67471 0.657437 0.0
-1.66143 0.727637 0.0
-1.67125 0.768571 0.0
-1.67851 0.821429 0.0
-1.68841 0.861538 0.0
-1.70904 0.890909 0.0
-1.69995 1 0.0
-1.68176 0.963636 0.0
-1.67267 0.927273 0.0
-1.65427 0.187143 0.0
-1.66718 0.231429 0.0
-1.66554 0.3 0.0
-1.67802 0.571429 0.0
-1.67792 0.523809 0.0
-1.6367 0.366327 0.0
-1.63682 0.423469 0.0
-1.62568 0.502976 0.0
-1.6629 0.470238 0.0
-1.65254 0.618367 0.0
-1.6059 0.307143 0.0
-1.59833 0 0.0
-1.58288 0.0384615 0.0
-1.60563 0.169643 0.0
-1.58179 0.112271 0.0
-1.56964 0.0714286 0.0
-1.64574 0.690385 0.0
-1.62827 0.751429 0.0
-1.63371 0.791071 0.0
-1.64279 0.857143 0.0
-1.65378 0.896154 0.0
-1.64994 1 0.0
-1.6363 0.963636 0.0
-1.61916 0.930769 0.0
-1.61345 0.209107 0.0
-1.62126 0.248571 0.0
-1.56989 0.196429 0.0
-1.63324 0.553571 0.0
-1.58846 0.535714 0.0
-1.59408 0.361905 0.0
-1.59161 0.402211 0.0
-1.58832 0.464286 0.0
-1.61504 0.598581 0.0
-1.59683 0.64359 0.0
-1.57899 0.274107 0.0
-1.56176 0.322381 0.0
-1.54812 0 0.0
-1.53378 0.0357143 0.0
-1.54593 0.147619 0.0
-1.53385 0.0732143 0.0
-1.53393 0.110714 0.0
-1.58522 0.704286 0.0
-1.58709 0.745 0.0
-1.58896 0.785714 0.0
-1.60695 0.830357 0.0
-1.60707 0.892857 0.0
-1.59993 1 0.0
-1.58454 0.965385 0.0
-1.57135 0.928571 0.0
-1.55209 0.241071 0.0
-1.5291 0.198214 0.0
-1.56936 0.570918 0.0
-1.54369 0.517857 0.0
-1.5464 0.380952 0.0
-1.54564 0.427721 0.0
-1.54488 0.47449 0.0
-1.55026 0.606122 0.0
-1.54222 0.677143 0.0
-1.52943 0.282857 0.0
-1.52143 0.33619 0.0
-1.49792 0 0.0
-1.49802 0.05 0.0
-1.49822 0.15 0.0
-1.49312 0.1 0.0
-1.5423 0.717143 0.0
-1.54419 0.767857 0.0
-1.54727 0.819048 0.0
-1.57122 0.861905 0.0
-1.53553 0.914286 0.0
-1.54992 1 0.0
-1.53563 0.964286 0.0
-1.49842 0.25 0.0
-1.48831 0.2 0.0
-1.5214 0.558929 0.0
-1.49891 0.5 0.0
-1.49871 0.4 0.0
-1.47631 0.45 0.0
-1.49911 0.6 0.0
-1.49921 0.65 0.0
-1.49931 0.7 0.0
-1.48111 0.35 0.0
-1.48351 0.3 0.0
-1.44771 0 0.0
-1.44782 0.05 0.0
-1.44804 0.15 0.0
-1.44793 0.1 0.0
-1.49941 0.75 0.0
-1.49951 0.8 0.0
-1.49981 0.95 0.0
-1.49961 0.85 0.0
-1.49971 0.9 0.0
-1.49991 1 0.0
-1.44826 0.25 0.0
-1.43815 0.2 0.0
-1.47151 0.55 0.0
-1.44881 0.5 0.0
-1.44859 0.4 0.0
-1.42619 0.45 0.0
-1.44913 0.65 0.0
-1.44902 0.6 0.0
-1.44935 0.75 0.0
-1.44924 0.7 0.0
-1.43972 0.35 0.0
-1.43336 0.3 0.0
-1.3975 0 0.0
-1.39762 0.05 0.0
-1.39786 0.15 0.0
-1.39274 0.1 0.0
-1.44957 0.85 0.0
-1.44946 0.8 0.0
-1.4523 0.95 0.0
-1.44968 0.9 0.0
-1.4499 1 0.0
-1.3981 0.25 0.0
-1.38798 0.2 0.0
-1.42141 0.55 0.0
-1.3987 0.5 0.0
-1.39834 0.35 0.0
-1.37845 0.4 0.0
-1.37607 0.45 0.0
-1.40784 0.65 0.0
-1.39894 0.6 0.0
-1.41185 0.75 0.0
-1.39918 0.7 0.0
-1.38322 0.3 0.0
-1.34729 0 0.0
-1.34492 0.05 0.0
-1.34018 0.15 0.0
-1.34255 0.1 0.0
-1.40707 0.85 0.0
-1.39941 0.8 0.0
-1.39977 0.95 0.0
-1.39965 0.9 0.0
-1.39989 1 0.0
-1.33781 0.2 0.0
-1.33544 0.25 0.0
-1.37131 0.55 0.0
-1.34859 0.5 0.0
-1.33833 0.4 0.0
-1.3307 0.35 0.0
-1.32595 0.45 0.0
-1.34885 0.6 0.0
-1.36655 0.65 0.0
-1.36179 0.75 0.0
-1.34911 0.7 0.0
-1.33307 0.3 0.0
-1.29708 0 0.0
-1.29722 0.05 0.0
-1.2975 0.15 0.0
-1.29236 0.1 0.0
-1.35703 0.85 0.0
-1.34937 0.8 0.0
-1.34988 1 0.0
-1.34962 0.9 0.0
-1.35226 0.95 0.0
-1.28528 0.25 0.0
-1.28764 0.2 0.0
-1.28931 0.35 0.0
-1.32121 0.55 0.0
-1.29848 0.5 0.0
-1.28709 0.45 0.0
-1.2982 0.4 0.0
-1.29876 0.6 0.0
-1.31647 0.65 0.0
-1.29918 0.75 0.0
-1.29904 0.7 0.0
-1.28292 0.3 0.0
-1.24687 0 0.0
-1.24702 0.05 0.0
-1.24717 0.1 0.0
-1.24732 0.15 0.0
-1.29946 0.85 0.0
-1.29932 0.8 0.0
-1.29987 1 0.0
-1.29974 0.95 0.0
-1.30462 0.9 0.0
-1.24762 0.25 0.0
-1.23747 0.2 0.0
-1.24792 0.35 0.0
-1.22807 0.4 0.0
-1.27111 0.55 0.0
-1.24837 0.5 0.0
-1.24822 0.45 0.0
-1.24867 0.6 0.0
-1.26639 0.65 0.0
-1.26167 0.75 0.0
-1.24897 0.7 0.0
-1.23277 0.3 0.0
-1.19667 0 0.0
-1.19683 0.05 0.0
-1.18964 0.15 0.0
-1.19198 0.1 0.0
-1.25695 0.85 0.0
-1.24927 0.8 0.0
-1.25223 0.95 0.0
-1.24987 1 0.0
-1.24957 0.9 0.0
-1.1873 0.2 0.0
-1.18496 0.25 0.0
-1.18028 0.35 0.0
-1.17794 0.4 0.0
-1.1981 0.45 0.0
-1.19842 0.55 0.0
-1.19826 0.5 0.0
-1.19858 0.6 0.0
-1.19874 0.65 0.0
-1.19906 0.75 0.0
-1.1989 0.7 0.0
-1.18262 0.3 0.0
-1.14646 0 0.0
-1.14663 0.05 0.0
-1.1418 0.1 0.0
-1.13713 0.2 0.0
-1.14697 0.15 0.0
-1.20691 0.85 0.0
-1.20926 0.8 0.0
-1.20221 0.95 0.0
-1.19986 1 0.0
-1.20456 0.9 0.0
-1.13997 0.3 0.0
-1.14731 0.25 0.0
-1.13781 0.4 0.0
-1.13014 0.35 0.0
-1.12548 0.45 0.0
-1.14815 0.5 0.0
-1.15962 0.55 0.0
-1.14849 0.6 0.0
-1.15745 0.65 0.0
-1.16155 0.75 0.0
-1.14917 0.8 0.0
-1.14883 0.7 0.0
-1.09625 0 0.0
-1.09661 0.1 0.0
-1.09393 0.05 0.0
-1.09697 0.2 0.0
-1.08929 0.15 0.0
-1.15687 0.85 0.0
-1.14985 1 0.0
-1.15219 0.95 0.0
-1.14951 0.9 0.0
-1.09733 0.3 0.0
-1.08465 0.25 0.0
-1.09769 0.4 0.0
-1.08 0.35 0.0
-1.08661 0.45 0.0
-1.09804 0.5 0.0
-1.12082 0.55 0.0
-1.10916 0.8 0.0
-1.10629 0.7 0.0
-1.0984 0.6 0.0
-1.11616 0.65 0.0
-1.11149 0.75 0.0
-1.04604 0 0.0
-1.04623 0.05 0.0
-1.04642 0.1 0.0
-1.0468 0.2 0.0
-1.03911 0.15 0.0
-1.09948 0.9 0.0
-1.0993 0.85 0.0
-1.09984 1 0.0
-1.09966 0.95 0.0
-1.04718 0.3 0.0
-1.03449 0.25 0.0
-1.04756 0.4 0.0
-1.02986 0.35 0.0
-1.04775 0.45 0.0
-1.04794 0.5 0.0
-1.04813 0.55 0.0
-1.05911 0.8 0.0
-1.04831 0.6 0.0
-1.06376 0.7 0.0
-1.0485 0.65 0.0
-1.04888 0.75 0.0
-0.995833 0 0.0
-0.991231 0.1 0.0
-0.996033 0.05 0.0
-0.986629 0.2 0.0
-0.98893 0.15 0.0
-1.05447 0.9 0.0
-1.04926 0.85 0.0
-1.04983 1 0.0
-1.04964 0.95 0.0
-0.984328 0.25 0.0
-0.99703 0.3 0.0
-0.997429 0.4 0.0
-0.997628 0.45 0.0
-0.979726 0.35 0.0
-0.997827 0.5 0.0
-0.998027 0.55 0.0
-0.998226 0.6 0.0
-0.961416 0.475 0.0
-1.00907 0.8 0.0
-0.998426 0.65 0.0
-0.998625 0.7 0.0
-1.01138 0.75 0.0
-0.945625 0 0.0
-0.946044 0.1 0.0
-0.943334 0.05 0.0
-0.946463 0.2 0.0
-0.938752 0.15 0.0
-1.00444 0.9 0.0
-1.00675 0.85 0.0
-0.999821 1 0.0
-1.00213 0.95 0.0
-0.93417 0.25 0.0
-0.946881 0.3 0.0
-0.9473 0.4 0.0
-0.929588 0.35 0.0
-0.925005 0.45 0.0
-0.960371 0.525 0.0
-0.959325 0.575 0.0
-0.958279 0.625 0.0
-0.922714 0.5 0.0
-0.959017 0.8 0.0
-0.957233 0.675 0.0
-0.952999 0.7125 0.0
-0.948766 0.75 0.0
-0.895417 0 0.0
-0.895855 0.1 0.0
-0.893136 0.05 0.0
-0.896294 0.2 0.0
-0.888573 0.15 0.0
-0.949184 0.85 0.0
-0.954415 0.9 0.0
-0.949812 1 0.0
-0.949603 0.95 0.0
-0.884011 0.25 0.0
-0.896733 0.3 0.0
-0.874887 0.45 0.0
-0.879449 0.35 0.0
-0.897171 0.4 0.0
-0.920423 0.55 0.0
-0.918132 0.6 0.0
-0.915841 0.65 0.0
-0.872606 0.5 0.0
-0.908968 0.8 0.0
-0.91355 0.7 0.0
-0.898707 0.75 0.0
-0.845208 0 0.0
-0.845438 0.05 0.0
-0.845667 0.1 0.0
-0.845896 0.15 0.0
-0.833853 0.25 0.0
-0.846126 0.2 0.0
-0.899146 0.85 0.0
-0.904386 0.9 0.0
-0.899584 0.95 0.0
-0.899804 1 0.0
-0.838062 0.35 0.0
[...]
POINT_DATA 10839
VECTORS Velocity float
0.21 0 0.0
0.24 0 0.0
0.2275 0 0.0
0.2475 0 0.0
0.25 0 0.0
0.2475 0 0.0
0 0 0.0
0.0475 0 0.0
0.1275 0 0.0
0.09 0 0.0
0.09 0 0.0
0.1275 0 0.0
0.1875 0 0.0
0.16 0 0.0
0.195557 -2.4202e-05 0.0
0.242841 -3.29268e-05 0.0
0.215776 -2.87706e-05 0.0
0.231406 -3.24055e-05 0.0
0.248725 -3.50447e-05 0.0
0.24 0 0.0
0.24284 -3.28502e-05 0.0
0.24852 -3.37504e-05 0.0
0 0 0.0
0.0622239 -4.27385e-06 0.0
0.0322271 -2.82631e-06 0.0
0.16 0 0.0
0.1875 0 0.0
0.21 0 0.0
0.2275 0 0.0
0.193592 -2.71605e-05 0.0
0.138887 -1.51476e-05 0.0
0 0 0.0
0.0475 0 0.0
0.0998415 -1.05602e-05 0.0
0.0622205 -4.32281e-06 0.0
0.0998462 -1.10302e-05 0.0
0.138891 -1.52792e-05 0.0
0.17438 -3.81412e-05 0.0
0.201606 -5.21471e-05 0.0
0.235787 -6.3562e-05 0.0
0.244085 -6.64823e-05 0.0
0.223602 -8.51455e-05 0.0
0.249751 -6.94378e-05 0.0
0.249044 -7.73472e-05 0.0
0.231404 -3.29236e-05 0.0
0.244081 -6.56929e-05 0.0
0 0 0.0
0.0361083 -5.44344e-06 0.0
0.0736128 -1.51762e-05 0.0
0.0622494 -1.66071e-05 0.0
0.17437 -3.75837e-05 0.0
0.220162 -5.20916e-05 0.0
0.201594 -5.22172e-05 0.0
0.115548 -2.2631e-05 0.0
0.146676 -3.4964e-05 0.0
0 0 0.0
0.0360873 -3.67928e-06 0.0
0.069366 -1.18914e-05 0.0
0.0899833 -2.35089e-05 0.0
0.109391 -3.17361e-05 0.0
0.146692 -3.42837e-05 0.0
0.178902 -6.38256e-05 0.0
0.206293 -8.33144e-05 0.0
0.214501 -0.000112097 0.0
0.238527 -9.94729e-05 0.0
0.24735 -0.000103547 0.0
0.229607 -0.000126478 0.0
0.226323 -8.94283e-05 0.0
0.249983 -0.000104047 0.0
0.246426 -0.000101239 0.0
0.23668 -9.53559e-05 0.0
0 0 0.0
0.032251 -6.14138e-06 0.0
0.0956968 -3.5993e-05 0.0
0.0694296 -2.7119e-05 0.0
0.178876 -6.28523e-05 0.0
0.206269 -8.39286e-05 0.0
0.127476 -4.85422e-05 0.0
0.165873 -7.94429e-05 0.0
0.152325 -5.7013e-05 0.0
0 0 0.0
0.0360794 -5.27461e-06 0.0
0.0621955 -1.64408e-05 0.0
0.0956298 -3.66936e-05 0.0
0.127525 -4.90026e-05 0.0
0.156661 -7.1047e-05 0.0
0.115601 -5.61845e-05 0.0
0.193626 -0.000116813 0.0
0.218141 -0.000147629 0.0
0.24094 -0.000134706 0.0
0.247737 -0.000139664 0.0
0.25 -0.000141172 0.0
0.234398 -0.000170756 0.0
0.229577 -0.000124707 0.0
0.247727 -0.000139344 0.0
0.240919 -0.000134446 0.0
0 0 0.0
0.0344877 -8.48671e-06 0.0
0.103121 -5.51538e-05 0.0
0.0623035 -2.74496e-05 0.0
0.189727 -9.93685e-05 0.0
0.212989 -0.000138503 0.0
0.170534 -0.000107525 0.0
0.14433 -7.99168e-05 0.0
0 0 0.0
0.0398977 -9.05337e-06 0.0
0.0997861 -5.02101e-05 0.0
0.0693209 -2.66973e-05 0.0
0.170624 -0.000107658 0.0
0.144421 -8.16532e-05 0.0
0.124377 -8.27012e-05 0.0
0.183649 -0.000135889 0.0
0.204131 -0.000162547 0.0
0.222038 -0.000191218 0.0
0.249109 -0.000185037 0.0
0.244026 -0.000180156 0.0
0.24912 -0.00018506 0.0
0.23855 -0.000217025 0.0
0.234353 -0.000169706 0.0
0.244883 -0.00019496 0.0
0 0 0.0
0.0322925 -8.97802e-06 0.0
0.0940742 -5.79189e-05 0.0
0.0652176 -3.46648e-05 0.0
0.196696 -0.000148484 0.0
0.217872 -0.000182216 0.0
0.177438 -0.000150596 0.0
0.14869 -0.000105322 0.0
0.120329 -7.3875e-05 0.0
0 0 0.0
0.0343903 -8.58359e-06 0.0
0.0716439 -3.48435e-05 0.0
0.152424 -0.000118038 0.0
0.127614 -0.000102516 0.0
0.187578 -0.000168232 0.0
0.21195 -0.000209337 0.0
0.248605 -0.000229331 0.0
0.225685 -0.000237026 0.0
0.249783 -0.000231012 0.0
0.246474 -0.000227158 0.0
0.242064 -0.000265477 0.0
0.23849 -0.000216342 0.0
0 0 0.0
0.0338749 -1.12372e-05 0.0
0.0999927 -7.71876e-05 0.0
0.069545 -4.60907e-05 0.0
0.206261 -0.000195945 0.0
0.222405 -0.000228234 0.0
0.189976 -0.000203402 0.0
0.168254 -0.000164469 0.0
0.143004 -0.00012635 0.0
0.124194 -9.34216e-05 0.0
0.097084 -6.28746e-05 0.0
0 0 0.0
0.0360203 -1.0915e-05 0.0
0.0673146 -3.73088e-05 0.0
0.130334 -0.000123696 0.0
0.168482 -0.000165322 0.0
0.199472 -0.000215474 0.0
0.218378 -0.000252683 0.0
0.241992 -0.000266007 0.0
0.25 -0.000277687 0.0
0.247989 -0.00027443 0.0
0.229081 -0.000284923 0.0
0.244937 -0.000315666 0.0
0.24874 -0.000291287 0.0
0.234446 -0.000272384 0.0
0 0 0.0
0.0362331 -1.4471e-05 0.0
0.122658 -0.000126588 0.0
0.0712289 -5.44613e-05 0.0
0.20835 -0.000239206 0.0
0.225127 -0.000284375 0.0
0.198049 -0.000248112 0.0
0.177726 -0.000205671 0.0
0.146527 -0.000151919 0.0
0.119133 -0.000106363 0.0
0.0970513 -7.12484e-05 0.0
0 0 0.0
0.034938 -1.22149e-05 0.0
0.0672775 -4.1972e-05 0.0
0.1523 -0.00017259 0.0
0.178016 -0.000210686 0.0
0.210115 -0.000266318 0.0
0.244858 -0.00031541 0.0
0.24942 -0.000324055 0.0
0.232225 -0.000334694 0.0
0.244196 -0.000358742 0.0
0.249988 -0.000382568 0.0
0.249132 -0.00034042 0.0
0.235913 -0.000325628 0.0
0.212962 -0.000324684 0.0
0 0 0.0
0.0371619 -1.7036e-05 0.0
0.141109 -0.000175949 0.0
0.0999561 -0.000106602 0.0
0.0665991 -5.30688e-05 0.0
0.21363 -0.000290499 0.0
0.186609 -0.00025293 0.0
0.165086 -0.000206031 0.0
0.122242 -0.00012735 0.0
0.0928665 -7.807e-05 0.0
0 0 0.0
0.0349083 -1.36316e-05 0.0
0.0642265 -4.45585e-05 0.0
0.165596 -0.00022033 0.0
0.186966 -0.000258861 0.0
0.158122 -0.000230348 0.0
0.247091 -0.000368091 0.0
0.248691 -0.000422523 0.0
0.231051 -0.000375477 0.0
0.240525 -0.000400557 0.0
0.248757 -0.000422364 0.0
0.240203 -0.000374159 0.0
0.229257 -0.000367356 0.0
0.19918 -0.000317766 0.0
0.218632 -0.000379469 0.0
0 0 0.0
0.0346496 -1.67169e-05 0.0
0.126167 -0.000170911 0.0
0.0681773 -5.99289e-05 0.0
0.0988175 -0.000116018 0.0
0.208084 -0.000331568 0.0
0.189761 -0.000289293 0.0
0.168128 -0.000240355 0.0
0.140621 -0.000174535 0.0
0.0954099 -9.27537e-05 0.0
0 0 0.0
0.0332522 -1.3946e-05 0.0
0.0660562 -5.30167e-05 0.0
0.183221 -0.000300158 0.0
0.15926 -0.000257596 0.0
0.244899 -0.000435272 0.0
0.24966 -0.000477594 0.0
0.23596 -0.00043882 0.0
0.244857 -0.000463599 0.0
0.249377 -0.000476729 0.0
0.238621 -0.000440387 0.0
0.218422 -0.000397967 0.0
0.203102 -0.00037033 0.0
0.223368 -0.000433506 0.0
0 0 0.0
0.0478058 -3.32935e-05 0.0
0.127917 -0.000194696 0.0
0.0904214 -0.000108985 0.0
0.20261 -0.000355928 0.0
0.177969 -0.000293061 0.0
0.14789 -0.000220424 0.0
0.118722 -0.000144989 0.0
0.0780282 -7.79811e-05 0.0
0 0 0.0
0.0342304 -1.6424e-05 0.0
0.187829 -0.000355053 0.0
0.160397 -0.000286457 0.0
0.246452 -0.000496671 0.0
0.249999 -0.000535146 0.0
0.240138 -0.000506054 0.0
0.247575 -0.000557242 0.0
0.239861 -0.000504405 0.0
0.227294 -0.000466942 0.0
0.209732 -0.000415585 0.0
0.227721 -0.000491658 0.0
0.210287 -0.000434465 0.0
0 0 0.0
0.0478689 -3.71388e-05 0.0
0.128011 -0.000217174 0.0
0.0905026 -0.00011976 0.0
0.187174 -0.000352134 0.0
0.159622 -0.000276551 0.0
0.0471977 -3.27253e-05 0.0
0.127087 -0.000191934 0.0
0.0895914 -0.000106867 0.0
0 0 0.0
0.187904 -0.000398822 0.0
0.160486 -0.000320474 0.0
0.24742 -0.00056266 0.0
0.249998 -0.000602284 0.0
0.240169 -0.000570219 0.0
0.247592 -0.000626089 0.0
0.227248 -0.000524815 0.0
0.239828 -0.000567077 0.0
0.187099 -0.000394975 0.0
0.209671 -0.000466777 0.0
0.227761 -0.000539553 0.0
0.210351 -0.000488321 0.0
0 0 0.0
0.0479382 -4.0605e-05 0.0
0.128116 -0.000241271 0.0
0.0906125 -0.000134078 0.0
0.126994 -0.000215049 0.0
0.159537 -0.000309994 0.0
0.0471385 -3.63351e-05 0.0
0.0895028 -0.000118827 0.0
0 0 0.0
0.187989 -0.000445441 0.0
0.160587 -0.000357205 0.0
0.247402 -0.000630681 0.0
0.249997 -0.000674186 0.0
0.227804 -0.000591942 0.0
0.240219 -0.000666872 0.0
0.247609 -0.000700629 0.0
0.227204 -0.000573696 0.0
0.239792 -0.000634263 0.0
0.187037 -0.00042788 0.0
0.209601 -0.000521359 0.0
0.210423 -0.000546167 0.0
0 0 0.0
0.0480196 -4.49377e-05 0.0
0.128252 -0.000270992 0.0
0.0907245 -0.000147632 0.0
0.126907 -0.000234961 0.0
0.159441 -0.000345013 0.0
0.0470666 -4.04933e-05 0.0
0.0894046 -0.000131429 0.0
0 0 0.0
0.160699 -0.000396307 0.0
0.18811 -0.000508299 0.0
0.247382 -0.000703593 0.0
0.249995 -0.000751523 0.0
0.240252 -0.00072879 0.0
0.227886 -0.000685556 0.0
0.247629 -0.000779968 0.0
0.239751 -0.000705661 0.0
0.227156 -0.000627032 0.0
0.186947 -0.000475351 0.0
0.209524 -0.000579156 0.0
0.210504 -0.000609371 0.0
0 0 0.0
0.048101 -4.9276e-05 0.0
0.128364 -0.00029509 0.0
0.0908479 -0.000162094 0.0
0.126795 -0.000260425 0.0
0.159334 -0.000383025 0.0
0 0 0.0
0.0892948 -0.000146003 0.0
0.0469936 -4.47467e-05 0.0
0.18822 -0.0005666 0.0
0.160825 -0.000439543 0.0
0.227943 -0.000748953 0.0
0.247358 -0.000782672 0.0
0.249992 -0.000835573 0.0
0.247645 -0.000847349 0.0
0.240287 -0.000793986 0.0
0.239704 -0.000782832 0.0
0.227092 -0.000695842 0.0
0.186819 -0.000539197 0.0
0.209437 -0.000642135 0.0
0.210595 -0.000677651 0.0
0 0 0.0
0.0481927 -5.36878e-05 0.0
0.0909703 -0.000175533 0.0
0.12851 -0.000324878 0.0
0.12665 -0.000292752 0.0
0.159215 -0.000424123 0.0
0 0 0.0
0.0469057 -4.97412e-05 0.0
0.0891872 -0.000159882 0.0
0.188314 -0.000612569 0.0
0.160967 -0.000487076 0.0
0.228003 -0.000817829 0.0
0.240355 -0.000920629 0.0
0.247331 -0.000868394 0.0
0.249989 -0.000926368 0.0
0.247663 -0.000918703 0.0
0.239651 -0.000865951 0.0
0.22702 -0.000770015 0.0
0.186733 -0.000581327 0.0
0.209341 -0.000708603 0.0
0.210697 -0.000753907 0.0
0 0 0.0
0.0482936 -5.81305e-05 0.0
0.128699 -0.000363839 0.0
0.0911354 -0.000194321 0.0
0.126531 -0.000319512 0.0
0.159084 -0.000468695 0.0
0.0468169 -5.48066e-05 0.0
0 0 0.0
0.0890418 -0.000179367 0.0
0.161126 -0.000539821 0.0
0.188483 -0.000697597 0.0
0.228117 -0.000943422 0.0
0.24041 -0.00102487 0.0
0.247685 -0.00102025 0.0
0.247285 -0.00100284 0.0
0.249983 -0.00102746 0.0
0.239592 -0.000957639 0.0
0.226909 -0.000876827 0.0
0.186578 -0.000655384 0.0
0.209235 -0.000781116 0.0
0.21081 -0.000838561 0.0
0 0 0.0
0.0484021 -6.26004e-05 0.0
0.0913015 -0.000211257 0.0
0.161304 -0.000597195 0.0
0.128856 -0.000394602 0.0
0.12638 -0.000353788 0.0
0.15897 -0.000507029 0.0
0.046712 -6.17711e-05 0.0
0 0 0.0
0.0889081 -0.000197896 0.0
0.210917 -0.000919016 0.0
0.188601 -0.000757511 0.0
0.240456 -0.00111463 0.0
0.228209 -0.0010538 0.0
0.24772 -0.00118278 0.0
0.249975 -0.00113638 0.0
0.247255 -0.00108278 0.0
0.239525 -0.00105426 0.0
0.226832 -0.000947947 0.0
0.186474 -0.000703354 0.0
0.158785 -0.000569385 0.0
0.209118 -0.000856822 0.0
0 0 0.0
0.0914686 -0.000229941 0.0
0.0485289 -6.83147e-05 0.0
0.161463 -0.000652167 0.0
0.129093 -0.0004451 0.0
0.126214 -0.00039174 0.0
0 0 0.0
0.0465949 -6.94509e-05 0.0
0.0887297 -0.000223041 0.0
0.211035 -0.00100728 0.0
0.188816 -0.000871302 0.0
0.240505 -0.00121255 0.0
0.228312 -0.00117686 0.0
0.247735 -0.00128491 0.0
0.24996 -0.0012573 0.0
0.247221 -0.00117039 0.0
0.15865 -0.000610911 0.0
0.20901 -0.000924363 0.0
0.239447 -0.00115714 0.0
0.226748 -0.00102379 0.0
0.186327 -0.000770714 0.0
0 0 0.0
0.0486529 -7.37375e-05 0.0
0.0916708 -0.000253519 0.0
0.161686 -0.000728766 0.0
0.12933 -0.000496812 0.0
0.0885491 -0.000247434 0.0
0.126005 -0.000438367 0.0
0 0 0.0
0.0464579 -7.85277e-05 0.0
0.211185 -0.00112766 0.0
0.189015 -0.000978721 0.0
0.240569 -0.00135038 0.0
0.228422 -0.00131733 0.0
0.247752 -0.00139533 0.0
0.249943 -0.00139119 0.0
0.247143 -0.00134266 0.0
0.158472 -0.000666389 0.0
0.239359 -0.00126932 0.0
0.208892 -0.000992316 0.0
0.226594 -0.00115504 0.0
0.186125 -0.000859793 0.0
0 0 0.0
0.0919246 -0.000286808 0.0
0.0487953 -8.18621e-05 0.0
0.161989 -0.000841057 0.0
0.129596 -0.000560199 0.0
0.0883731 -0.000270656 0.0
0.125807 -0.000481853 0.0
0 0 0.0
0.0463103 -8.8431e-05 0.0
0.189236 -0.00110645 0.0
0.211353 -0.0012687 0.0
0.240635 -0.00150953 0.0
0.24777 -0.00154767 0.0
0.228541 -0.00147783 0.0
0.249914 -0.0015354 0.0
0.247075 -0.00147952 0.0
0.239256 -0.00138668 0.0
0.249454 -0.00166886 0.0
0.158278 -0.000721348 0.0
0.22646 -0.00125769 0.0
0.20869 -0.00110255 0.0
0.185991 -0.000911701 0.0
0 0 0.0
0.0921638 -0.000322711 0.0
0.0489677 -9.25859e-05 0.0
0.162221 -0.000934437 0.0
0.129898 -0.000639287 0.0
0.0881621 -0.000296212 0.0
0.125627 -0.000517423 0.0
0 0 0.0
0.0461569 -9.77986e-05 0.0
0.189483 -0.00125726 0.0
0.211537 -0.00143407 0.0
0.240695 -0.00168548 0.0
0.228668 -0.00166652 0.0
0.247779 -0.00180832 0.0
0.24907 -0.00162808 0.0
0.243707 -0.00154212 0.0
0.233371 -0.00141728 0.0
0.249847 -0.00178614 0.0
0.158072 -0.00077245 0.0
0.218062 -0.00126232 0.0
0.203307 -0.00113302 0.0
0.185753 -0.000993973 0.0
0 0 0.0
0.0924642 -0.000374144 0.0
0.0491527 -0.000105468 0.0
0.16254 -0.00107441 0.0
0.130246 -0.000740253 0.0
0.125369 -0.000560377 0.0
0.0879353 -0.000319872 0.0
0 0 0.0
0.0459729 -0.000106446 0.0
0.189759 -0.00143936 0.0
0.211738 -0.00162877 0.0
0.247768 -0.00201158 0.0
0.228798 -0.00188268 0.0
0.240761 -0.00189157 0.0
0.246935 -0.00171182 0.0
0.23905 -0.00159069 0.0
0.226197 -0.0014325 0.0
0.249776 -0.00197398 0.0
0.157849 -0.000817333 0.0
0.208379 -0.00124411 0.0
0.185538 -0.00105468 0.0
0 0 0.0
0.0493614 -0.000122591 0.0
0.0928135 -0.000441608 0.0
0.130583 -0.000846719 0.0
0.190063 -0.00165551 0.0
0.162903 -0.00124628 0.0
0.12513 -0.000589304 0.0
0.0876953 -0.000339241 0.0
0.0457816 -0.000114772 0.0
0 0 0.0
0.22891 -0.00208914 0.0
0.211954 -0.00186119 0.0
0.247752 -0.00219097 0.0
0.240813 -0.00212914 0.0
0.226003 -0.00153779 0.0
0.246813 -0.00187486 0.0
0.238885 -0.00172633 0.0
0.249684 -0.00218162 0.0
0.185307 -0.0011025 0.0
0.157564 -0.000851738 0.0
0.208095 -0.00134364 0.0
0 0 0.0
0.0496204 -0.000149206 0.0
0.0932748 -0.000534852 0.0
0.131035 -0.00100124 0.0
0.19031 -0.00185198 0.0
0.163397 -0.00151065 0.0
0.124884 -0.000605373 0.0
0.0874259 -0.000350666 0.0
0.0455846 -0.000119583 0.0
0 0 0.0
0.12463 -0.000605744 0.0
0.229019 -0.00231314 0.0
0.212256 -0.00223028 0.0
0.240868 -0.00252107 0.0
0.24772 -0.00238369 0.0
0.225691 -0.00167774 0.0
0.238692 -0.00186577 0.0
0.246662 -0.00205317 0.0
0.249554 -0.00241293 0.0
0.18505 -0.00113683 0.0
0.157304 -0.000866334 0.0
0.207838 -0.0014127 0.0
0 0 0.0
0.0499319 -0.000179107 0.0
0.0937777 -0.000644783 0.0
0.131557 -0.00119297 0.0
0.19067 -0.00214766 0.0
0.163871 -0.00178057 0.0
0.0453778 -0.000124064 0.0
0.0871739 -0.000354158 0.0
0 0 0.0
0.124413 -0.000588832 0.0
0.229148 -0.00263943 0.0
0.212504 -0.00256883 0.0
0.240883 -0.00284578 0.0
0.247649 -0.00266808 0.0
0.225455 -0.00176507 0.0
0.238458 -0.0020118 0.0
0.249387 -0.0026694 0.0
0.246375 -0.00233706 0.0
0.184833 -0.00114905 0.0
0.157027 -0.000858123 0.0
0.207545 -0.00146677 0.0
0 0 0.0
0.0503088 -0.000218917 0.0
0.0943785 -0.000777478 0.0
0.132262 -0.00146125 0.0
0.19116 -0.0025972 0.0
0.21276 -0.00296586 0.0
0.164401 -0.00210416 0.0
0.0451877 -0.000122316 0.0
0.0869323 -0.000345361 0.0
0 0 0.0
0.124161 -0.000553064 0.0
0.229308 -0.00314758 0.0
0.240877 -0.00314384 0.0
0.247544 -0.00298689 0.0
0.249224 -0.00288419 0.0
0.225193 -0.00184305 0.0
0.238165 -0.0021708 0.0
0.246109 -0.00255239 0.0
0.156735 -0.000826312 0.0
0.184517 -0.00115135 0.0
0.207201 -0.00150994 0.0
0 0 0.0
0.0507949 -0.000268736 0.0
0.0950997 -0.000941374 0.0
0.132989 -0.00174668 0.0
0.191481 -0.00291861 0.0
0.213017 -0.00341386 0.0
0.165002 -0.00248258 0.0
0.0449947 -0.00011871 0.0
0.0867081 -0.000323268 0.0
0 0 0.0
0.156487 -0.000778962 0.0
0.086515 -0.000285238 0.0
0.12388 -0.000487157 0.0
0.229404 -0.0036124 0.0
0.240844 -0.00346061 0.0
0.247308 -0.00351929 0.0
0.249035 -0.00310968 0.0
0.245867 -0.00273776 0.0
0.224818 -0.00193698 0.0
0.237667 -0.00240104 0.0
0.184065 -0.00112244 0.0
0.206867 -0.00154157 0.0
0.229476 -0.00402262 0.0
0 0 0.0
0.0513542 -0.000325073 0.0
0.13384 -0.00208023 0.0
0.0959536 -0.001134 0.0
0.213284 -0.00394105 0.0
0.192061 -0.00352948 0.0
0.165677 -0.00292004 0.0
0.0448147 -0.000105948 0.0
0 0 0.0
0.18375 -0.00109454 0.0
0.156159 -0.000706037 0.0
0.123655 -0.000415081 0.0
0.0446477 -9.83368e-05 0.0
0.0863518 -0.000239697 0.0
0.240777 -0.00391532 0.0
0.247127 -0.00384727 0.0
0.248716 -0.00344543 0.0
0.248431 -0.00372767 0.0
0.245574 -0.00292995 0.0
0.224365 -0.00203565 0.0
0.237201 -0.00258077 0.0
0.206482 -0.00155396 0.0
0.229512 -0.00447985 0.0
0.0519919 -0.000388244 0.0
0 0 0.0
0.134663 -0.00239726 0.0
0.0969596 -0.00134898 0.0
0.213547 -0.00453231 0.0
0.192434 -0.00395172 0.0
0.166444 -0.00342194 0.0
0 0 0.0
0.183302 -0.00103436 0.0
0.155746 -0.000594375 0.0
0.123481 -0.00033282 0.0
0.0445302 -8.48224e-05 0.0
0.0862258 -0.000187745 0.0
0.24059 -0.00465561 0.0
0.246917 -0.00419508 0.0
0.248091 -0.00402297 0.0
0.24491 -0.00332515 0.0
0.22384 -0.00212766 0.0
0.236669 -0.00276948 0.0
0.2058 -0.00157138 0.0
0.229548 -0.00510642 0.0
0 0 0.0
0.0527909 -0.00046408 0.0
0.135771 -0.00281662 0.0
0.0980268 -0.00157114 0.0
0.167303 -0.00398044 0.0
0.21381 -0.00520435 0.0
0.193121 -0.00473419 0.0
0 0 0.0
0 0 0.0
0.182781 -0.000970149 0.0
0.155384 -0.000491332 0.0
0.123302 -0.000236959 0.0
0.0861515 -0.000132969 0.0
0.0444348 -6.94609e-05 0.0
0.240385 -0.00525824 0.0
0.246562 -0.00470394 0.0
0.23616 -0.00293703 0.0
0.247565 -0.00446061 0.0
0.244314 -0.00364535 0.0
0.22321 -0.00222995 0.0
0.205166 -0.00157818 0.0
0.240173 -0.00579942 0.0
0.229526 -0.00580754 0.0
0.0537402 -0.000549927 0.0
0.0993924 -0.00184046 0.0
0.137047 -0.00328982 0.0
0.16808 -0.00448745 0.0
0.214078 -0.00594737 0.0
0.193558 -0.00527768 0.0
0 0 0.0
0 0 0.0
0.155082 -0.000401238 0.0
0.182067 -0.000876186 0.0
0.0861248 -7.92672e-05 0.0
0.123124 -0.000125948 0.0
0.044355 -5.52962e-05 0.0
0.245914 -0.00551856 0.0
0.246918 -0.00495274 0.0
0.204454 -0.00158588 0.0
0.235584 -0.003109 0.0
0.243793 -0.00391779 0.0
0.222207 -0.00237763 0.0
0.239917 -0.0063609 0.0
0.229458 -0.00687766 0.0
0.214336 -0.00677995 0.0
0.0549087 -0.000654613 0.0
0.10097 -0.00215203 0.0
0.138747 -0.0038948 0.0
0.169155 -0.00516567 0.0
0.194371 -0.00626455 0.0
0 0 0.0
0 0 0.0
0.154622 -0.000278007 0.0
0.181413 -0.000817257 0.0
0.0861533 -2.16622e-05 0.0
0.123008 -3.9303e-05 0.0
0.0443242 -3.93707e-05 0.0
0.243192 -0.0042132 0.0
0.246164 -0.00548438 0.0
0.245319 -0.00618445 0.0
0.203642 -0.00160325 0.0
0.234757 -0.00335535 0.0
0.221313 -0.00252047 0.0
0.180712 -0.000772511 0.0
0.239332 -0.00748626 0.0
0 0 0.0
0.229316 -0.00779005 0.0
0.195085 -0.00716322 0.0
0.214587 -0.00769169 0.0
0.0561521 -0.000760311 0.0
0.140204 -0.00440616 0.0
0.102989 -0.00254505 0.0
0.170614 -0.00610477 0.0
0 0 0.0
0 0 0.0
0 0 0.0
0 0 0.0
0 0 0.0
0.0443217 -2.7777e-05 0.0
0.12293 2.9652e-05 0.0
0.154224 -0.000199973 0.0
0.0861897 1.15685e-05 0.0
0.242302 -0.00461556 0.0
0.245269 -0.00608242 0.0
0.244635 -0.00691096 0.0
0.220488 -0.00263466 0.0
0.202721 -0.00164021 0.0
0.233373 -0.00374681 0.0
0.201864 -0.00168811 0.0
0.180135 -0.000752699 0.0
0.238782 -0.0084059 0.0
0.229133 -0.00877195 0.0
0 0 0.0
9.24382e-05 -3.38411e-05 0.0
0 0 0.0
-0.000419441 0.00268639 0.0
0.214843 -0.00871395 0.0
0.195675 -0.00788838 0.0
0.0577426 -0.000900566 0.0
0.142098 -0.00506033 0.0
0.105105 -0.00295373 0.0
0.172014 -0.0069882 0.0
0 0 0.0
0 0 0.0
0 0 0.0
-0.000323229 0.00154599 0.0
-5.13184e-05 -5.65072e-05 0.0
-2.55382e-05 5.00342e-06 0.0
0 0 0.0
0.0443161 -2.39202e-05 0.0
0.12287 7.11369e-05 0.0
0.153815 -0.000152083 0.0
0.0862756 3.43642e-05 0.0
0.241276 -0.00507558 0.0
0.244235 -0.00673901 0.0
0.243816 -0.00770614 0.0
0.219574 -0.00278188 0.0
0.23245 -0.00401754 0.0
0.20093 -0.00175275 0.0
0.179124 -0.000769331 0.0
0.238145 -0.00940101 0.0
0.231656 -0.00970736 0.0
0.222558 -0.00974813 0.0
0 0 0.0
7.6926e-05 3.07149e-05 0.0
0 0 0.0
0 0 0.0
-0.00146233 0.00584531 0.0
-0.00146072 0.00397429 0.0
0.210839 -0.00954072 0.0
0.196504 -0.00895742 0.0
0.107277 -0.00337883 0.0
0.0594236 -0.0010622 0.0
0.144233 -0.00581354 0.0
0.17355 -0.0079764 0.0
0 0 0.0
-0.000579159 0.000869072 0.0
-0.00103207 0.0021709 0.0
-0.000411035 0.000395586 0.0
-0.000424907 0.000356711 0.0
0 0 0.0
0.0443218 -2.4446e-05 0.0
0.122821 8.58009e-05 0.0
0.153401 -0.000133813 0.0
0.086365 3.31901e-05 0.0
0.240094 -0.00558097 0.0
0.243049 -0.00745416 0.0
0.242858 -0.0085758 0.0
0.217881 -0.00307121 0.0
0.231434 -0.00429749 0.0
0.199732 -0.00188064 0.0
0.152997 -0.000178458 0.0
0.178253 -0.00084004 0.0
0.237543 -0.0102565 0.0
0.228671 -0.0106403 0.0
0.215236 -0.0107233 0.0
0 0 0.0
-0.000321126 0.000186731 0.0
0 0 0.0
0 0 0.0
0 0 0.0
0 0 0.0
-0.00269517 0.0042105 0.0
-0.000387649 0.00490359 0.0
-0.001457 0.00742524 0.0
-0.00343214 0.00966983 0.0
-0.00298304 0.00677859 0.0
0 0 0.0
-3.26588e-05 0.00680908 0.0
0.197612 -0.0104998 0.0
0.174903 -0.00888967 0.0
0 0 0.0
0.0616057 -0.00128841 0.0
0.110012 -0.00394656 0.0
0.147029 -0.00688517 0.0
0 0 0.0
0 0 0.0
-0.00170753 0.00214445 0.0
-0.00139073 0.00125169 0.0