# vtk DataFile Version 3.0
Mesh NS-CD Problem
ASCII
DATASET UNSTRUCTURED_GRID
POINTS 10839 float
-2 0.3 0.0
-2 0.4 0.0
-2 0.35 0.0
-2 0.45 0.0
-2 0.5 0.0
-2 0.55 0.0
-2 0 0.0
-2 0.05 0.0
-2 0.85 0.0
-2 0.9 0.0
-2 0.1 0.0
-2 0.15 0.0
-2 0.25 0.0
-2 0.2 0.0
-1.96653 0.266667 0.0
-1.96524 0.415385 0.0
-1.96485 0.315 0.0
-1.96348 0.363636 0.0
-1.96414 0.464286 0.0
-2 0.6 0.0
-1.96538 0.584615 0.0
-1.96538 0.538462 0.0
-1.94979 0 0.0
-1.96653 0.0666666 0.0
-1.93306 0.0333333 0.0
-2 0.8 0.0
-2 0.75 0.0
-2 0.7 0.0
-2 0.65 0.0
-1.96249 0.7375 0.0
-1.96666 0.833333 0.0
-2 1 0.0
-2 0.95 0.0
-1.96249 0.8875 0.0
-1.96666 0.933333 0.0
-1.96234 0.1125 0.0
-1.96653 0.166667 0.0
-1.93724 0.225 0.0
-1.92971 0.28 0.0
-1.93048 0.380769 0.0
-1.93048 0.423077 0.0
-1.89958 0.3375 0.0
-1.9292 0.484203 0.0
-1.92117 0.530907 0.0
-1.96363 0.636364 0.0
-1.93076 0.576923 0.0
-1.89958 0 0.0
-1.88703 0.0375 0.0
-1.90963 0.08 0.0
-1.86611 0.0666666 0.0
-1.93749 0.775 0.0
-1.93635 0.672727 0.0
-1.92999 0.72 0.0
-1.93332 0.866667 0.0
-1.92856 0.821429 0.0
-1.94999 1 0.0
-1.92499 0.9625 0.0
-1.92499 0.925 0.0
-1.89998 0.9 0.0
-1.89958 0.125 0.0
-1.92827 0.178571 0.0
-1.89958 0.233333 0.0
-1.89045 0.290909 0.0
-1.86096 0.311538 0.0
-1.89241 0.392857 0.0
-1.89334 0.448489 0.0
-1.85655 0.357143 0.0
-1.89614 0.653846 0.0
-1.89427 0.504121 0.0
-1.8952 0.559753 0.0
-1.89614 0.615385 0.0
-1.84937 0 0.0
-1.83264 0.0333333 0.0
-1.85655 0.107143 0.0
-1.81172 0.075 0.0
-1.89998 0.766667 0.0
-1.89089 0.709091 0.0
-1.87498 0.85 0.0
-1.85998 0.79 0.0
-1.88748 0.8125 0.0
-1.89998 1 0.0
-1.88748 0.9625 0.0
-1.86664 0.933333 0.0
-1.85712 0.892857 0.0
-1.87448 0.15 0.0
-1.86611 0.194444 0.0
-1.83264 0.133333 0.0
-1.83264 0.2625 0.0
-1.82068 0.321429 0.0
-1.85664 0.404762 0.0
-1.85674 0.452381 0.0
-1.85683 0.5 0.0
-1.81184 0.375 0.0
-1.85712 0.642857 0.0
-1.85693 0.547619 0.0
-1.85702 0.595238 0.0
-1.79917 0 0.0
-1.78482 0.0357143 0.0
-1.79917 0.116667 0.0
-1.76569 0.0666666 0.0
-1.85452 0.745455 0.0
-1.82689 0.692308 0.0
-1.81815 0.781818 0.0
-1.82497 0.825 0.0
-1.84997 1 0.0
-1.8333 0.958333 0.0
-1.81247 0.8875 0.0
-1.81247 0.925 0.0
-1.81742 0.218182 0.0
-1.82427 0.175 0.0
-1.77634 0.145455 0.0
-1.79144 0.242308 0.0
-1.78482 0.285714 0.0
-1.77469 0.332653 0.0
-1.81215 0.529762 0.0
-1.81194 0.422619 0.0
-1.81203 0.470238 0.0
-1.76714 0.392857 0.0
-1.81234 0.625 0.0
-1.79732 0.571429 0.0
-1.74896 0 0.0
-1.73222 0.0333333 0.0
-1.75398 0.105 0.0
-1.71883 0.07 0.0
-1.79227 0.730769 0.0
-1.78007 0.679121 0.0
-1.75765 0.769231 0.0
-1.78178 0.818182 0.0
-1.78996 0.86 0.0
-1.79996 1 0.0
-1.78568 0.964286 0.0
-1.76663 0.922222 0.0
-1.76569 0.1875 0.0
-1.73222 0.15 0.0
-1.74896 0.25 0.0
-1.73714 0.304762 0.0
-1.76743 0.537202 0.0
-1.72869 0.343878 0.0
-1.76732 0.485119 0.0
-1.76723 0.440476 0.0
-1.72243 0.410714 0.0
-1.76757 0.607143 0.0
-1.69875 0 0.0
-1.68369 0.035 0.0
-1.69875 0.1125 0.0
-1.66528 0.075 0.0
-1.74341 0.708974 0.0
-1.73324 0.665934 0.0
-1.70441 0.74478 0.0
-1.71423 0.785714 0.0
-1.72303 0.826923 0.0
-1.74541 0.854545 0.0
-1.74541 0.890909 0.0
-1.74996 1 0.0
-1.73745 0.9625 0.0
-1.71359 0.927273 0.0
-1.68716 0.153846 0.0
-1.7131 0.214286 0.0
-1.70725 0.275 0.0
-1.69712 0.321939 0.0
-1.72279 0.589286 0.0
-1.72261 0.5 0.0
-1.7227 0.544643 0.0
-1.6827 0.355102 0.0
-1.67773 0.428571 0.0
-1.70763 0.464286 0.0
-1.70369 0.62449 0.0
-1.64854 0 0.0
-1.63181 0.0375 0.0
-1.64137 0.142857 0.0
-1.61764 0.0769231 0.0
-1.69458 0.703846 0.0
-1.67471 0.657437 0.0
-1.66143 0.727637 0.0
-1.67125 0.768571 0.0
-1.67851 0.821429 0.0
-1.68841 0.861538 0.0
-1.70904 0.890909 0.0
-1.69995 1 0.0
-1.68176 0.963636 0.0
-1.67267 0.927273 0.0
-1.65427 0.187143 0.0
-1.66718 0.231429 0.0
-1.66554 0.3 0.0
-1.67802 0.571429 0.0
-1.67792 0.523809 0.0
-1.6367 0.366327 0.0
-1.63682 0.423469 0.0
-1.62568 0.502976 0.0
-1.6629 0.470238 0.0
-1.65254 0.618367 0.0
-1.6059 0.307143 0.0
-1.59833 0 0.0
-1.58288 0.0384615 0.0
-1.60563 0.169643 0.0
-1.58179 0.112271 0.0
-1.56964 0.0714286 0.0
-1.64574 0.690385 0.0
-1.62827 0.751429 0.0
-1.63371 0.791071 0.0
-1.64279 0.857143 0.0
-1.65378 0.896154 0.0
-1.64994 1 0.0
-1.6363 0.963636 0.0
-1.61916 0.930769 0.0
-1.61345 0.209107 0.0
-1.62126 0.248571 0.0
-1.56989 0.196429 0.0
-1.63324 0.553571 0.0
-1.58846 0.535714 0.0
-1.59408 0.361905 0.0
-1.59161 0.402211 0.0
-1.58832 0.464286 0.0
-1.61504 0.598581 0.0
-1.59683 0.64359 0.0
-1.57899 0.274107 0.0
-1.56176 0.322381 0.0
-1.54812 0 0.0
-1.53378 0.0357143 0.0
-1.54593 0.147619 0.0
-1.53385 0.0732143 0.0
-1.53393 0.110714 0.0
-1.58522 0.704286 0.0
-1.58709 0.745 0.0
-1.58896 0.785714 0.0
-1.60695 0.830357 0.0
-1.60707 0.892857 0.0
-1.59993 1 0.0
-1.58454 0.965385 0.0
-1.57135 0.928571 0.0
-1.55209 0.241071 0.0
-1.5291 0.198214 0.0
-1.56936 0.570918 0.0
-1.54369 0.517857 0.0
-1.5464 0.380952 0.0
-1.54564 0.427721 0.0
-1.54488 0.47449 0.0
-1.55026 0.606122 0.0
-1.54222 0.677143 0.0
-1.52943 0.282857 0.0
-1.52143 0.33619 0.0
-1.49792 0 0.0
-1.49802 0.05 0.0
-1.49822 0.15 0.0
-1.49312 0.1 0.0
-1.5423 0.717143 0.0
-1.54419 0.767857 0.0
-1.54727 0.819048 0.0
-1.57122 0.861905 0.0
-1.53553 0.914286 0.0
-1.54992 1 0.0
-1.53563 0.964286 0.0
-1.49842 0.25 0.0
-1.48831 0.2 0.0
-1.5214 0.558929 0.0
-1.49891 0.5 0.0
-1.49871 0.4 0.0
-1.47631 0.45 0.0
-1.49911 0.6 0.0
-1.49921 0.65 0.0
-1.49931 0.7 0.0
-1.48111 0.35 0.0
-1.48351 0.3 0.0
-1.44771 0 0.0
-1.44782 0.05 0.0
-1.44804 0.15 0.0
-1.44793 0.1 0.0
-1.49941 0.75 0.0
-1.49951 0.8 0.0
-1.49981 0.95 0.0
-1.49961 0.85 0.0
-1.49971 0.9 0.0
-1.49991 1 0.0
-1.44826 0.25 0.0
-1.43815 0.2 0.0
-1.47151 0.55 0.0
-1.44881 0.5 0.0
-1.44859 0.4 0.0
-1.42619 0.45 0.0
-1.44913 0.65 0.0
-1.44902 0.6 0.0
-1.44935 0.75 0.0
-1.44924 0.7 0.0
-1.43972 0.35 0.0
-1.43336 0.3 0.0
-1.3975 0 0.0
-1.39762 0.05 0.0
-1.39786 0.15 0.0
-1.39274 0.1 0.0
-1.44957 0.85 0.0
-1.44946 0.8 0.0
-1.4523 0.95 0.0
-1.44968 0.9 0.0
-1.4499 1 0.0
-1.3981 0.25 0.0
-1.38798 0.2 0.0
-1.42141 0.55 0.0
-1.3987 0.5 0.0
-1.39834 0.35 0.0
-1.37845 0.4 0.0
-1.37607 0.45 0.0
-1.40784 0.65 0.0
-1.39894 0.6 0.0
-1.41185 0.75 0.0
-1.39918 0.7 0.0
-1.38322 0.3 0.0
-1.34729 0 0.0
-1.34492 0.05 0.0
-1.34018 0.15 0.0
-1.34255 0.1 0.0
-1.40707 0.85 0.0
-1.39941 0.8 0.0
-1.39977 0.95 0.0
-1.39965 0.9 0.0
-1.39989 1 0.0
-1.33781 0.2 0.0
-1.33544 0.25 0.0
-1.37131 0.55 0.0
-1.34859 0.5 0.0
-1.33833 0.4 0.0
-1.3307 0.35 0.0
-1.32595 0.45 0.0
-1.34885 0.6 0.0
-1.36655 0.65 0.0
-1.36179 0.75 0.0
-1.34911 0.7 0.0
-1.33307 0.3 0.0
-1.29708 0 0.0
-1.29722 0.05 0.0
-1.2975 0.15 0.0
-1.29236 0.1 0.0
-1.35703 0.85 0.0
-1.34937 0.8 0.0
-1.34988 1 0.0
-1.34962 0.9 0.0
-1.35226 0.95 0.0
-1.28528 0.25 0.0
-1.28764 0.2 0.0
-1.28931 0.35 0.0
-1.32121 0.55 0.0
-1.29848 0.5 0.0
-1.28709 0.45 0.0
-1.2982 0.4 0.0
-1.29876 0.6 0.0
-1.31647 0.65 0.0
-1.29918 0.75 0.0
-1.29904 0.7 0.0
-1.28292 0.3 0.0
-1.24687 0 0.0
-1.24702 0.05 0.0
-1.24717 0.1 0.0
-1.24732 0.15 0.0
-1.29946 0.85 0.0
-1.29932 0.8 0.0
-1.29987 1 0.0
-1.29974 0.95 0.0
-1.30462 0.9 0.0
-1.24762 0.25 0.0
-1.23747 0.2 0.0
-1.24792 0.35 0.0
-1.22807 0.4 0.0
-1.27111 0.55 0.0
-1.24837 0.5 0.0
-1.24822 0.45 0.0
-1.24867 0.6 0.0
-1.26639 0.65 0.0
-1.26167 0.75 0.0
-1.24897 0.7 0.0
-1.23277 0.3 0.0
-1.19667 0 0.0
-1.19683 0.05 0.0
-1.18964 0.15 0.0
-1.19198 0.1 0.0
-1.25695 0.85 0.0
-1.24927 0.8 0.0
-1.25223 0.95 0.0
-1.24987 1 0.0
-1.24957 0.9 0.0
-1.1873 0.2 0.0
-1.18496 0.25 0.0
-1.18028 0.35 0.0
-1.17794 0.4 0.0
-1.1981 0.45 0.0
-1.19842 0.55 0.0
-1.19826 0.5 0.0
-1.19858 0.6 0.0
-1.19874 0.65 0.0
-1.19906 0.75 0.0
-1.1989 0.7 0.0
-1.18262 0.3 0.0
-1.14646 0 0.0
-1.14663 0.05 0.0
-1.1418 0.1 0.0
-1.13713 0.2 0.0
-1.14697 0.15 0.0
-1.20691 0.85 0.0
-1.20926 0.8 0.0
-1.20221 0.95 0.0
-1.19986 1 0.0
-1.20456 0.9 0.0
-1.13997 0.3 0.0
-1.14731 0.25 0.0
-1.13781 0.4 0.0
-1.13014 0.35 0.0
-1.12548 0.45 0.0
-1.14815 0.5 0.0
-1.15962 0.55 0.0
-1.14849 0.6 0.0
-1.15745 0.65 0.0
-1.16155 0.75 0.0
-1.14917 0.8 0.0
-1.14883 0.7 0.0
-1.09625 0 0.0
-1.09661 0.1 0.0
-1.09393 0.05 0.0
-1.09697 0.2 0.0
-1.08929 0.15 0.0
-1.15687 0.85 0.0
-1.14985 1 0.0
-1.15219 0.95 0.0
-1.14951 0.9 0.0
-1.09733 0.3 0.0
-1.08465 0.25 0.0
-1.09769 0.4 0.0
-1.08 0.35 0.0
-1.08661 0.45 0.0
-1.09804 0.5 0.0
-1.12082 0.55 0.0
-1.10916 0.8 0.0
-1.10629 0.7 0.0
-1.0984 0.6 0.0
-1.11616 0.65 0.0
-1.11149 0.75 0.0
-1.04604 0 0.0
-1.04623 0.05 0.0
-1.04642 0.1 0.0
-1.0468 0.2 0.0
-1.03911 0.15 0.0
-1.09948 0.9 0.0
-1.0993 0.85 0.0
-1.09984 1 0.0
-1.09966 0.95 0.0
-1.04718 0.3 0.0
-1.03449 0.25 0.0
-1.04756 0.4 0.0
-1.02986 0.35 0.0
-1.04775 0.45 0.0
-1.04794 0.5 0.0
-1.04813 0.55 0.0
-1.05911 0.8 0.0
-1.04831 0.6 0.0
-1.06376 0.7 0.0
-1.0485 0.65 0.0
-1.04888 0.75 0.0
-0.995833 0 0.0
-0.991231 0.1 0.0
-0.996033 0.05 0.0
-0.986629 0.2 0.0
-0.98893 0.15 0.0
-1.05447 0.9 0.0
-1.04926 0.85 0.0
-1.04983 1 0.0
-1.04964 0.95 0.0
-0.984328 0.25 0.0
-0.99703 0.3 0.0
-0.997429 0.4 0.0
-0.997628 0.45 0.0
-0.979726 0.35 0.0
-0.997827 0.5 0.0
-0.998027 0.55 0.0
-0.998226 0.6 0.0
-0.961416 0.475 0.0
-1.00907 0.8 0.0
-0.998426 0.65 0.0
-0.998625 0.7 0.0
-1.01138 0.75 0.0
-0.945625 0 0.0
-0.946044 0.1 0.0
-0.943334 0.05 0.0
-0.946463 0.2 0.0
-0.938752 0.15 0.0
-1.00444 0.9 0.0
-1.00675 0.85 0.0
-0.999821 1 0.0
-1.00213 0.95 0.0
-0.93417 0.25 0.0
-0.946881 0.3 0.0
-0.9473 0.4 0.0
-0.929588 0.35 0.0
-0.925005 0.45 0.0
-0.960371 0.525 0.0
-0.959325 0.575 0.0
-0.958279 0.625 0.0
-0.922714 0.5 0.0
-0.959017 0.8 0.0
-0.957233 0.675 0.0
-0.952999 0.7125 0.0
-0.948766 0.75 0.0
-0.895417 0 0.0
-0.895855 0.1 0.0
-0.893136 0.05 0.0
-0.896294 0.2 0.0
-0.888573 0.15 0.0
-0.949184 0.85 0.0
-0.954415 0.9 0.0
-0.949812 1 0.0
-0.949603 0.95 0.0
-0.884011 0.25 0.0
-0.896733 0.3 0.0
-0.874887 0.45 0.0
-0.879449 0.35 0.0
-0.897171 0.4 0.0
-0.920423 0.55 0.0
-0.918132 0.6 0.0
-0.915841 0.65 0.0
-0.872606 0.5 0.0
-0.908968 0.8 0.0
-0.91355 0.7 0.0
-0.898707 0.75 0.0
-0.845208 0 0.0
-0.845438 0.05 0.0
-0.845667 0.1 0.0
-0.845896 0.15 0.0
-0.833853 0.25 0.0
-0.846126 0.2 0.0
-0.899146 0.85 0.0
-0.904386 0.9 0.0
-0.899584 0.95 0.0
-0.899804 1 0.0
-0.838062 0.35 0.0
[...]
POINT_DATA 10839
VECTORS Velocity float
0.21 0 0.0
0.24 0 0.0
0.2275 0 0.0
0.2475 0 0.0
0.25 0 0.0
0.2475 0 0.0
0 0 0.0
0.0475 0 0.0
0.1275 0 0.0
0.09 0 0.0
0.09 0 0.0
0.1275 0 0.0
0.1875 0 0.0
0.16 0 0.0
0.195649 -0.000888459 0.0
0.242731 -0.000647221 0.0
0.215718 -0.00107487 0.0
0.231312 -0.00103122 0.0
0.248564 -0.000259342 0.0
0.24 0 0.0
0.242731 0.000622831 0.0
0.248362 0.000219061 0.0
0 0 0.0
0.0619842 0.000900813 0.0
0.0318487 -0.000700352 0.0
0.16 0 0.0
0.1875 0 0.0
0.21 0 0.0
0.2275 0 0.0
0.193689 0.000996284 0.0
0.139026 -7.38694e-05 0.0
0 0 0.0
0.0475 0 0.0
0.100008 -0.000613506 0.0
0.0620425 -0.000899724 0.0
0.0997466 0.000754345 0.0
0.139072 1.36291e-05 0.0
0.174715 -0.00229253 0.0
0.20164 -0.00294775 0.0
0.235369 -0.00205501 0.0
0.243585 -0.00141613 0.0
0.222933 -0.00500956 0.0
0.249098 -0.000289665 0.0
0.248317 0.00063756 0.0
0.231273 0.000951596 0.0
0.243592 0.00140576 0.0
0 0 0.0
0.0416709 -0.00410942 0.0
0.0755392 -0.00754798 0.0
0.0715855 -0.0122598 0.0
0.174711 0.00225943 0.0
0.220036 0.00225579 0.0
0.201675 0.0029546 0.0
0.115778 0.00258359 0.0
0.14715 0.00325844 0.0
0 0 0.0
0.0365622 0.00156697 0.0
0.0702112 0.00406159 0.0
0.0909121 0.010776 0.0
0.109795 -0.011323 0.0
0.147102 -0.00307507 0.0
0.178726 -0.00774642 0.0
0.205623 -0.00762379 0.0
0.212084 -0.0122412 0.0
0.237188 -0.00401252 0.0
0.245807 -0.00197047 0.0
0.226599 -0.0099242 0.0
0.225458 0.0052385 0.0
0.248375 0.000183613 0.0
0.244988 0.00211126 0.0
0.235567 0.00383719 0.0
0 0 0.0
0.0495756 -0.00456105 0.0
0.0993199 -0.0211012 0.0
0.0920836 -0.0172021 0.0
0.178772 0.0077323 0.0
0.205536 0.00747037 0.0
0.127033 0.0182911 0.0
0.1638 0.0199598 0.0
0.151805 0.0125432 0.0
0 0 0.0
0.0416104 0.00418352 0.0
0.0717269 0.0122347 0.0
0.0993414 0.0209612 0.0
0.126951 -0.0185267 0.0
0.155163 -0.0190663 0.0
0.117481 -0.0280657 0.0
0.189375 -0.0235983 0.0
0.212078 -0.0202088 0.0
0.237694 -0.00652994 0.0
0.24431 -0.00331962 0.0
0.246492 -5.63135e-05 0.0
0.227038 -0.0154636 0.0
0.226604 0.00977949 0.0
0.244334 0.00314219 0.0
0.237654 0.00641909 0.0
0 0 0.0
0.0647578 -0.00485398 0.0
0.114456 -0.0283692 0.0
0.101453 -0.013004 0.0
0.187239 0.0181221 0.0
0.207777 0.0202569 0.0
0.165439 0.0313178 0.0
0.141887 0.0314707 0.0
0 0 0.0
0.0592499 0.00686635 0.0
0.109907 0.027069 0.0
0.091782 0.0170742 0.0
0.165265 -0.0313831 0.0
0.141682 -0.031617 0.0
0.130891 -0.0337197 0.0
0.175458 -0.0349662 0.0
0.193889 -0.03205 0.0
0.209697 -0.0272513 0.0
0.241419 0.00352392 0.0
0.236464 -0.00955335 0.0
0.241446 -0.00368233 0.0
0.224429 -0.0186501 0.0
0.227034 0.0152426 0.0
0.235431 0.0100416 0.0
0 0 0.0
0.0723844 -0.00332117 0.0
0.121536 -0.0236814 0.0
0.116855 -0.0112894 0.0
0.187836 0.0323401 0.0
0.206447 0.0280062 0.0
0.168605 0.039097 0.0
0.146399 0.0374502 0.0
0.126297 0.0329125 0.0
0 0 0.0
0.0645263 0.00479717 0.0
0.10729 0.0163451 0.0
0.149933 -0.0385744 0.0
0.140023 -0.0317869 0.0
0.176273 -0.0386809 0.0
0.19541 -0.0343557 0.0
0.234269 0.00639202 0.0
0.206132 -0.0293858 0.0
0.23532 -0.00266069 0.0
0.232154 -0.0105178 0.0
0.219682 -0.0179253 0.0
0.224446 0.0183342 0.0
0 0 0.0
0.0833524 -0.00263158 0.0
0.137461 -0.0202804 0.0
0.132216 -0.00909562 0.0
0.191287 0.0354217 0.0
0.203995 0.0305117 0.0
0.176415 0.0367222 0.0
0.162887 0.0370682 0.0
0.148542 0.034356 0.0
0.136239 0.0321407 0.0
0.124866 0.0239014 0.0
0 0 0.0
0.0782144 0.00425601 0.0
0.119681 0.0116418 0.0
0.148976 -0.0271569 0.0
0.163029 -0.0372244 0.0
0.182945 -0.0364316 0.0
0.195865 -0.0317243 0.0
0.219654 0.0177344 0.0
0.226874 -0.00010799 0.0
0.225124 0.0089544 0.0
0.202146 -0.0267932 0.0
0.213595 -0.0142562 0.0
0.222677 -0.00757623 0.0
0.209716 0.0241279 0.0
0 0 0.0
0.0942993 -0.00204063 0.0
0.153934 -0.0195859 0.0
0.141459 -0.00680366 0.0
0.188331 0.0338411 0.0
0.198148 0.0275626 0.0
0.180352 0.0314496 0.0
0.169809 0.0325881 0.0
0.15593 0.0293902 0.0
0.145198 0.0244218 0.0
0.134193 0.0204205 0.0
0 0 0.0
0.0858639 0.00276363 0.0
0.129116 0.0090066 0.0
0.160619 -0.0270564 0.0
0.170114 -0.0323425 0.0
0.187552 -0.0310548 0.0
0.21358 0.0140083 0.0
0.217215 0.00468753 0.0
0.198251 -0.0216863 0.0
0.205878 -0.0135116 0.0
0.20774 0.00033607 0.0
0.21405 -0.00598911 0.0
0.202753 0.0206114 0.0
0.1856 -0.0231908 0.0
0 0 0.0
0.100387 -0.00144709 0.0
0.162963 -0.0187934 0.0
0.158136 -0.00958245 0.0
0.143922 -0.00424872 0.0
0.18832 0.0278656 0.0
0.174945 0.0268655 0.0
0.166782 0.0258191 0.0
0.153952 0.0195316 0.0
0.144867 0.0138686 0.0
0 0 0.0
0.0915469 0.00196467 0.0
0.135971 0.0056994 0.0
0.168386 -0.0231748 0.0
0.175233 -0.0261155 0.0
0.169541 -0.0169451 0.0
0.207175 0.00920382 0.0
0.201169 0.00496987 0.0
0.193111 -0.0179996 0.0
0.197419 -0.0136084 0.0
0.20109 -0.00533943 0.0
0.200229 0.0150742 0.0
0.19249 0.0184824 0.0
0.179901 -0.0205736 0.0
0.185968 -0.0173142 0.0
0 0 0.0
0.0977033 -0.000851587 0.0
0.166292 -0.0107705 0.0
0.148517 -0.00339697 0.0
0.163105 -0.0067426 0.0
0.182867 0.0206358 0.0
0.176772 0.0212117 0.0
0.170522 0.0200176 0.0
0.162624 0.0187418 0.0
0.153572 0.010586 0.0
0 0 0.0
0.0923531 0.00119531 0.0
0.14373 0.00417122 0.0
0.17568 -0.0169362 0.0
0.172115 -0.0130258 0.0
0.196868 0.00868056 0.0
0.19601 0.00178358 0.0
0.19107 -0.0122731 0.0
0.19437 -0.00805398 0.0
0.196072 -0.00305443 0.0
0.192354 0.0110734 0.0
0.185028 0.0149504 0.0
0.180614 -0.0149561 0.0
0.185673 -0.0129255 0.0
0 0 0.0
0.125311 -0.00128107 0.0
0.170143 -0.0079106 0.0
0.163764 -0.00424464 0.0
0.18057 0.0159449 0.0
0.174698 0.0155672 0.0
0.169083 0.013365 0.0
0.162372 0.0117433 0.0
0.155292 0.00436425 0.0
0 0 0.0
0.097496 0.00086069 0.0
0.177721 -0.0120338 0.0
0.174104 -0.00992886 0.0
0.192634 0.00530632 0.0
0.191777 -0.000254251 0.0
0.189017 -0.00789825 0.0
0.189395 -0.00377291 0.0
0.188937 0.00748177 0.0
0.185677 0.0102314 0.0
0.181665 0.0117072 0.0
0.185141 -0.00946343 0.0
0.181702 -0.0108837 0.0
0 0 0.0
0.127486 -0.000767769 0.0
0.172879 -0.00554791 0.0
0.166714 -0.00304444 0.0
0.177398 0.0117807 0.0
0.173355 0.0104163 0.0
0.124858 0.00122062 0.0
0.169578 0.00780043 0.0
0.162727 0.0043603 0.0
0 0 0.0
0.178307 -0.00856147 0.0
0.175813 -0.00704452 0.0
0.189051 0.00315665 0.0
0.188262 -0.000264313 0.0
0.186303 -0.00574763 0.0
0.186628 -0.0027804 0.0
0.183844 0.00716844 0.0
0.186171 0.00523327 0.0
0.177978 0.00825653 0.0
0.181015 0.00822171 0.0
0.183805 -0.00718747 0.0
0.181146 -0.00778887 0.0
0 0 0.0
0.129227 -0.000459509 0.0
0.174854 -0.00390777 0.0
0.169115 -0.00211894 0.0
0.172476 0.00536604 0.0
0.175067 0.00729321 0.0
0.126915 0.000737689 0.0
0.166108 0.00294851 0.0
0 0 0.0
0.17881 -0.00610583 0.0
0.17704 -0.0050168 0.0
0.18629 0.00211489 0.0
0.185706 -0.000317091 0.0
0.182809 -0.00547558 0.0
0.183772 -0.00367753 0.0
0.184568 -0.00209933 0.0
0.182772 0.00528293 0.0
0.184222 0.0035863 0.0
0.178317 0.00627398 0.0
0.180551 0.00570899 0.0
0.180789 -0.00559633 0.0
0 0 0.0
0.129945 -0.000538787 0.0
0.176431 -0.00264759 0.0
0.17057 -0.00155118 0.0
0.174069 0.00388635 0.0
0.176352 0.00506086 0.0
0.128312 0.000460094 0.0
0.16834 0.00201258 0.0
0 0 0.0
0.177939 -0.0035956 0.0
0.179237 -0.00403065 0.0
0.184321 0.00136662 0.0
0.183951 -0.000364334 0.0
0.182838 -0.00289546 0.0
0.181725 -0.00357806 0.0
0.183159 -0.00162665 0.0
0.182845 0.00238849 0.0
0.181941 0.00385683 0.0
0.178612 0.00431549 0.0
0.180213 0.00390286 0.0
0.180554 -0.00405543 0.0
0 0 0.0
0.130296 -0.000350206 0.0
0.177262 -0.00200269 0.0
0.171609 -0.00108424 0.0
0.175468 0.00265844 0.0
0.177212 0.00347501 0.0
0 0 0.0
0.170019 0.00138318 0.0
0.1293 0.000373563 0.0
0.179505 -0.00295245 0.0
0.178585 -0.00260013 0.0
0.18129 -0.00280338 0.0
0.18293 0.000805882 0.0
0.182685 -0.0004249 0.0
0.182364 -0.00137965 0.0
0.182111 -0.00232104 0.0
0.181862 0.00152212 0.0
0.181208 0.002574 0.0
0.178867 0.00262996 0.0
0.179965 0.0026138 0.0
0.18041 -0.00298544 0.0
0 0 0.0
0.131026 -0.000108706 0.0
0.172264 -0.00074837 0.0
0.177954 -0.00146401 0.0
0.176548 0.00169265 0.0
0.17781 0.00233927 0.0
0 0 0.0
0.129805 0.000239984 0.0
0.170571 0.000976773 0.0
0.179684 -0.00236557 0.0
0.179112 -0.00193098 0.0
0.180967 -0.00224307 0.0
0.181259 -0.00167349 0.0
0.18195 0.000385964 0.0
0.181808 -0.000497656 0.0
0.181756 -0.00120637 0.0
0.181167 0.000884206 0.0
0.180681 0.00164604 0.0
0.178958 0.00191775 0.0
0.179776 0.00167902 0.0
0.180334 -0.00226612 0.0
0 0 0.0
0.131487 -5.90944e-05 0.0
0.178762 -0.00107978 0.0
0.173159 -0.000556791 0.0
0.177081 0.00117895 0.0
0.178209 0.00152817 0.0
0.129932 0.00013112 0.0
0 0 0.0
0.171175 0.00060583 0.0
0.17947 -0.00149544 0.0
0.179899 -0.0017104 0.0
0.180644 -0.00166406 0.0
0.180887 -0.0014159 0.0
0.181189 -0.00107844 0.0
0.181002 -6.57165e-05 0.0
0.181187 -0.000582069 0.0
0.180662 0.000402615 0.0
0.180179 0.000767007 0.0
0.179036 0.00104195 0.0
0.179622 0.000998278 0.0
0.180301 -0.00178719 0.0
0 0 0.0
0.132033 -0.000144817 0.0
0.17339 -0.000549699 0.0
0.179782 -0.0012169 0.0
0.179007 -0.000909269 0.0
0.177515 0.000737127 0.0
0.178417 0.00104669 0.0
0.130402 6.82959e-05 0.0
0 0 0.0
0.171773 0.000376858 0.0
0.180301 -0.00152066 0.0
0.180034 -0.00146837 0.0
0.180673 -0.00129158 0.0
0.180505 -0.00143392 0.0
0.180657 -0.0010272 0.0
0.180749 -0.000681862 0.0
0.180666 -0.000261405 0.0
0.180294 2.57131e-05 0.0
0.179963 0.000375271 0.0
0.179051 0.000660287 0.0
0.178618 0.000512255 0.0
0.179489 0.000486972 0.0
0 0 0.0
0.174023 -0.000501787 0.0
0.132343 -0.000311748 0.0
0.179999 -0.00106887 0.0
0.179383 -0.000784304 0.0
0.177752 0.000402848 0.0
0 0 0.0
0.130607 1.21717e-06 0.0
0.172098 0.000172442 0.0
0.180329 -0.00135328 0.0
0.180206 -0.00122902 0.0
0.180525 -0.00123278 0.0
0.180433 -0.00131601 0.0
0.18048 -0.0010561 0.0
0.180441 -0.000801219 0.0
0.180398 -0.000439814 0.0
0.178664 0.000245994 0.0
0.179386 0.000144952 0.0
0.180021 -0.000283151 0.0
0.179778 5.51204e-05 0.0
0.17903 0.000259715 0.0
0 0 0.0
0.131748 -0.000114983 0.0
0.173868 -0.000427696 0.0
0.180227 -0.000961454 0.0
0.179728 -0.000705444 0.0
0.172371 6.32407e-05 0.0
0.177847 0.000124134 0.0
0 0 0.0
0.131124 -4.9977e-05 0.0
0.180379 -0.00125778 0.0
0.180361 -0.00114744 0.0
0.180403 -0.00122893 0.0
0.180409 -0.00129025 0.0
0.180342 -0.00111449 0.0
0.180221 -0.000943129 0.0
0.180038 -0.000745296 0.0
0.178666 -1.96836e-05 0.0
0.179806 -0.000553637 0.0
0.179283 -0.000139091 0.0
0.179536 -0.000370938 0.0
0.17896 -0.000128991 0.0
0 0 0.0
0.174339 -0.000377217 0.0
0.132868 6.08731e-06 0.0
0.18049 -0.000923523 0.0
0.180026 -0.000686712 0.0
0.172163 -2.67623e-05 0.0
0.177949 -7.36099e-05 0.0
0 0 0.0
0.130305 5.8374e-05 0.0
0.180518 -0.00114369 0.0
0.180459 -0.00125028 0.0
0.180341 -0.00129734 0.0
0.180224 -0.00122535 0.0
0.180423 -0.00133778 0.0
0.180064 -0.00110664 0.0
0.179868 -0.000960613 0.0
0.179634 -0.000800657 0.0
0.180074 -0.00129826 0.0
0.17863 -0.000254499 0.0
0.179381 -0.000642667 0.0
0.179121 -0.000500634 0.0
0.178892 -0.000320893 0.0
0 0 0.0
0.174943 -0.000400368 0.0
0.133022 -0.000239745 0.0
0.180674 -0.000963345 0.0
0.180229 -0.000734877 0.0
0.1722 -0.000185257 0.0
0.177941 -0.000197347 0.0
0 0 0.0
0.130458 -0.00010155 0.0
0.180691 -0.00120008 0.0
0.180561 -0.00131504 0.0
0.180308 -0.0014176 0.0
0.180472 -0.00145483 0.0
0.180121 -0.00147555 0.0
0.179867 -0.00119363 0.0
0.179635 -0.00106528 0.0
0.179386 -0.000923207 0.0
0.179902 -0.00141552 0.0
0.178537 -0.000448189 0.0
0.179131 -0.000779835 0.0
0.178937 -0.000692561 0.0
0.178751 -0.000606983 0.0
0 0 0.0
0.174939 -0.000478983 0.0
0.133058 -0.000194922 0.0
0.18092 -0.00104739 0.0
0.18054 -0.000799457 0.0
0.17785 -0.000348519 0.0
0.172132 -0.000297187 0.0
0 0 0.0
0.130708 -0.000213458 0.0
0.180885 -0.00132179 0.0
0.180688 -0.00144401 0.0
0.18008 -0.00170121 0.0
0.180544 -0.00162987 0.0
0.180321 -0.00160132 0.0
0.179657 -0.00132073 0.0
0.179397 -0.00120002 0.0
0.179133 -0.00106363 0.0
0.179816 -0.00166503 0.0
0.1784 -0.00061776 0.0
0.178876 -0.000916128 0.0
0.178594 -0.000824316 0.0
0 0 0.0
0.132713 -0.000176277 0.0
0.175169 -0.000534021 0.0
0.18092 -0.000880011 0.0
0.181108 -0.00149867 0.0
0.181176 -0.00117696 0.0
0.177671 -0.00048578 0.0
0.171966 -0.000256109 0.0
0.130254 -1.15001e-07 0.0
0 0 0.0
0.180625 -0.00182159 0.0
0.180844 -0.00163746 0.0
0.180067 -0.00191591 0.0
0.180349 -0.00184518 0.0
0.178972 -0.00132445 0.0
0.179537 -0.00158376 0.0
0.17925 -0.00146743 0.0
0.179749 -0.00195807 0.0
0.178412 -0.00103839 0.0
0.178174 -0.000822646 0.0
0.17865 -0.00123278 0.0
0 0 0.0
0.133633 -0.000176996 0.0
0.17577 -0.000594551 0.0
0.181202 -0.0010123 0.0
0.181291 -0.00167057 0.0
0.181555 -0.00142105 0.0
0.177516 -0.000614359 0.0
0.171524 -0.000322676 0.0
0.129768 -0.000103803 0.0
0 0 0.0
0.177336 -0.000750813 0.0
0.180719 -0.0020462 0.0
0.181082 -0.00199146 0.0
0.180419 -0.00228749 0.0
0.18006 -0.00216133 0.0
0.178731 -0.00170313 0.0
0.179102 -0.00175857 0.0
0.179422 -0.00188491 0.0
0.179677 -0.00230284 0.0
0.178195 -0.00125996 0.0
0.177938 -0.00100982 0.0
0.178442 -0.00149762 0.0
0 0 0.0
0.13404 -0.000208717 0.0
0.176316 -0.000754727 0.0
0.181582 -0.00122687 0.0
0.181581 -0.00195189 0.0
0.181919 -0.00168808 0.0
0.129444 -0.00016677 0.0
0.171553 -0.000487518 0.0
0 0 0.0
0.176999 -0.000862092 0.0
0.180859 -0.00240444 0.0
0.181309 -0.00234323 0.0
0.18049 -0.00268592 0.0
0.18005 -0.00254101 0.0
0.178552 -0.0019668 0.0
0.178943 -0.00208291 0.0
0.179606 -0.00270905 0.0
0.179247 -0.00239528 0.0
0.177997 -0.00143453 0.0
0.177668 -0.00120447 0.0
0.178201 -0.00177796 0.0
0 0 0.0
0.134813 -0.000337391 0.0
0.17671 -0.000999093 0.0
0.182067 -0.00150741 0.0
0.181983 -0.00240669 0.0
0.181563 -0.00278178 0.0
0.18233 -0.00202702 0.0
0.129426 -0.000251711 0.0
0.171173 -0.00062749 0.0
0 0 0.0
0.176684 -0.00100567 0.0
0.181074 -0.00299322 0.0
0.180552 -0.00306826 0.0
0.180046 -0.00299321 0.0
0.179538 -0.0030622 0.0
0.178359 -0.00224844 0.0
0.178744 -0.00246224 0.0
0.179099 -0.00281535 0.0
0.177342 -0.00140651 0.0
0.177698 -0.0016892 0.0
0.177915 -0.00208996 0.0
0 0 0.0
0.135255 -0.000593678 0.0
0.177401 -0.00120572 0.0
0.182662 -0.00182457 0.0
0.182286 -0.0027565 0.0
0.181847 -0.00329506 0.0
0.182816 -0.0024212 0.0
0.129099 -0.000309325 0.0
0.170912 -0.000665997 0.0
0 0 0.0
0.177012 -0.00157652 0.0
0.170319 -0.00065755 0.0
0.176137 -0.00117059 0.0
0.181262 -0.0035755 0.0
0.180611 -0.00348834 0.0
0.180022 -0.00379362 0.0
0.17947 -0.00345202 0.0
0.178972 -0.00319071 0.0
0.178089 -0.00262647 0.0
0.178436 -0.0030735 0.0
0.177243 -0.00204276 0.0
0.177633 -0.00239206 0.0
0.181443 -0.00411237 0.0
0 0 0.0
0.136037 -0.000540171 0.0
0.18341 -0.0021769 0.0
0.178143 -0.00142776 0.0
0.182191 -0.00395345 0.0
0.182832 -0.00345033 0.0
0.183371 -0.00291555 0.0
0.128946 -0.000260335 0.0
0 0 0.0
0.176913 -0.00228966 0.0
0.176559 -0.00182727 0.0
0.175781 -0.00135695 0.0
0.127962 -0.000125988 0.0
0.16997 -0.000772739 0.0
0.180703 -0.00413942 0.0
0.179994 -0.00431215 0.0
0.179337 -0.00405509 0.0
0.179225 -0.0045814 0.0
0.178813 -0.003605 0.0
0.177754 -0.00306804 0.0
0.178133 -0.00359161 0.0
0.177301 -0.00270941 0.0
0.181599 -0.00474184 0.0
0.136582 -0.000621036 0.0
0 0 0.0
0.184031 -0.00254364 0.0
0.179023 -0.0016518 0.0
0.182563 -0.00474456 0.0
0.18324 -0.00398443 0.0
0.184069 -0.00353901 0.0
0 0 0.0
0.176428 -0.00263346 0.0
0.175892 -0.00217225 0.0
0.17519 -0.0015361 0.0
0.127745 -0.000295331 0.0
0.169218 -0.000971083 0.0
0.180797 -0.00525546 0.0
0.17996 -0.00488953 0.0
0.17907 -0.00515501 0.0
0.178462 -0.00449936 0.0
0.177371 -0.0035567 0.0
0.177799 -0.00417746 0.0
0.176715 -0.00327881 0.0
0.181846 -0.00567287 0.0
0 0 0.0
0.138119 -0.000720704 0.0
0.184995 -0.00314136 0.0
0.180324 -0.00200957 0.0
0.184863 -0.00433181 0.0
0.182979 -0.00572629 0.0
0.183994 -0.00504997 0.0
0 0 0.0
0 0 0.0
0.175849 -0.00303422 0.0
0.175297 -0.00249358 0.0
0.174585 -0.00177472 0.0
0.168598 -0.00112562 0.0
0.127205 -0.000473946 0.0
0.180838 -0.00623784 0.0
0.179856 -0.00577236 0.0
0.17747 -0.00469978 0.0
0.178824 -0.00602909 0.0
0.17812 -0.00525373 0.0
0.176903 -0.0041173 0.0
0.176152 -0.00376969 0.0
0.18084 -0.00716308 0.0
0.182034 -0.00679699 0.0
0.139631 -0.000939247 0.0
0.181389 -0.0025573 0.0
0.186083 -0.00395653 0.0
0.18562 -0.0051143 0.0
0.183431 -0.00690509 0.0
0.184506 -0.00592295 0.0
0 0 0.0
0 0 0.0
0.174715 -0.00275237 0.0
0.175009 -0.00357069 0.0
0.168071 -0.00122905 0.0
0.173669 -0.00204372 0.0
0.126655 -0.000421577 0.0
0.179634 -0.0072691 0.0
0.178473 -0.00704707 0.0
0.175515 -0.00431291 0.0
0.177081 -0.00526911 0.0
0.17781 -0.00590968 0.0
0.17614 -0.00497155 0.0
0.180807 -0.00817432 0.0
0.182314 -0.00867949 0.0
0.18388 -0.00838362 0.0
0.140941 -0.00143995 0.0
0.182943 -0.00333617 0.0
0.187764 -0.0052228 0.0
0.186706 -0.00629297 0.0
0.185437 -0.00765207 0.0
0 0 0.0
0 0 0.0
0.173736 -0.00317797 0.0
0.174205 -0.00405633 0.0
0.166923 -0.00135285 0.0
0.172879 -0.00228531 0.0
0.125629 -0.00047114 0.0
0.177436 -0.00662882 0.0
0.17802 -0.00818116 0.0
0.179312 -0.00856404 0.0
0.174763 -0.00490512 0.0
0.176513 -0.00607059 0.0
0.175439 -0.0057047 0.0
0.173293 -0.00457589 0.0
0.18056 -0.0103339 0.0
0 0 0.0
0.182344 -0.0104625 0.0
0.186243 -0.00942729 0.0
0.18428 -0.0101427 0.0
0.143502 -0.00179627 0.0
0.189213 -0.00640193 0.0
0.185474 -0.00445442 0.0
0.188122 -0.00829571 0.0
0 0 0.0
0 0 0.0
0 0 0.0
0 0 0.0
0 0 0.0
0.124661 -0.000522415 0.0
0.172033 -0.00255215 0.0
0.172772 -0.00357836 0.0
0.165962 -0.00147226 0.0
0.17684 -0.00763627 0.0
0.177406 -0.00947605 0.0
0.178896 -0.010028 0.0
0.174766 -0.0063289 0.0
0.173875 -0.005551 0.0
0.175498 -0.00733248 0.0
0.173025 -0.00613146 0.0
0.172502 -0.00497899 0.0
0.180138 -0.0122153 0.0
0.182266 -0.0124639 0.0
0 0 0.0
-0.00014711 2.0665e-05 0.0
0 0 0.0
0.000243471 -0.00319979 0.0
0.184616 -0.0123529 0.0
0.18692 -0.0110603 0.0
0.146677 -0.00232912 0.0
0.191145 -0.00814889 0.0
0.188172 -0.00590424 0.0
0.189627 -0.0105775 0.0
0 0 0.0
0 0 0.0
0 0 0.0
0.00022881 -0.00225662 0.0
0.000178144 -0.000137324 0.0
0.000391393 -0.00044237 0.0
0 0 0.0
0.124007 -0.000555938 0.0
0.171 -0.00278285 0.0
0.171708 -0.00398995 0.0
0.164881 -0.00165915 0.0
0.176103 -0.0087721 0.0
0.176609 -0.0109144 0.0
0.178267 -0.0116733 0.0
0.173988 -0.00701362 0.0
0.174776 -0.00814647 0.0
0.17206 -0.00673085 0.0
0.171042 -0.00568653 0.0
0.179513 -0.0143103 0.0
0.181353 -0.014591 0.0
0.183355 -0.0146051 0.0
0 0 0.0
0.000277241 -0.000271124 0.0
0 0 0.0
0 0 0.0
0.000980273 -0.00852681 0.0
0.00126781 -0.00706345 0.0
0.185421 -0.0144887 0.0
0.187687 -0.0138079 0.0
0.191456 -0.00778983 0.0
0.150741 -0.00324851 0.0
0.193492 -0.0106368 0.0
0.191091 -0.0135662 0.0
0 0 0.0
0.000965268 -0.00262999 0.0
0.0011723 -0.00476945 0.0
0.00112244 -0.00176915 0.0
0.00186935 -0.00159174 0.0
0 0 0.0
0.122978 -0.000614144 0.0
0.169782 -0.00307884 0.0
0.170499 -0.00440618 0.0
0.163638 -0.00183936 0.0
0.175179 -0.0100071 0.0
0.175584 -0.0124662 0.0
0.177384 -0.0135079 0.0
0.172506 -0.00820776 0.0
0.173946 -0.00898522 0.0
0.170762 -0.00747248 0.0
0.169162 -0.00484296 0.0
0.169687 -0.00627443 0.0
0.178745 -0.0161709 0.0
0.181516 -0.0166949 0.0
0.184621 -0.0172545 0.0
0 0 0.0
0.00196478 -0.00070054 0.0
0 0 0.0
0 0 0.0
0 0 0.0
0 0 0.0
0.0032679 -0.00907557 0.0
3.3649e-05 -0.0042173 0.0
0.000821995 -0.00977647 0.0
0.00272541 -0.0152827 0.0
0.00268944 -0.0119568 0.0
0 0 0.0
-0.000913242 -0.00114457 0.0
0.188229 -0.018265 0.0
0.192172 -0.0165874 0.0
0 0 0.0
0.156755 -0.00501241 0.0
0.195456 -0.010456 0.0
0.196615 -0.0151536 0.0
0 0 0.0
0 0 0.0
0.00278871 -0.00577653 0.0
0.0034001 -0.00403749 0.0
0.00461741 -0.00266658 0.0
0 0 0.0
0.121974 -0.000683761 0.0
0.168275 -0.00343511 0.0
0.162507 -0.00201939 0.0
0.167959 -0.0051749 0.0
0.17404 -0.0113299 0.0
0.174625 -0.0137081 0.0
0.176201 -0.0155207 0.0
0.171405 -0.00896331 0.0
0.172726 -0.0100877 0.0
0.169313 -0.00821596 0.0
0.168563 -0.00670204 0.0
0.182501 -0.0190826 0.0
0.177701 -0.0181767 0.0
0.180092 -0.0207678 0.0
0.183763 -0.0219927 0.0
0.188166 -0.0229943 0.0
0 0 0.0
0.00373597 -0.000849735 0.0
-0.000657557 -0.00319647 0.0
-0.000530407 -0.0125179 0.0
-0.000100023 -0.00459525 0.0
0.00526967 -0.0129929 0.0
0.00839348 -0.0119695 0.0
0.00057673 -0.0125587 0.0
0.00256044 -0.0186834 0.0
0.00536396 -0.0195688 0.0
-0.00156542 0.00157552 0.0
-0.00313107 -0.0102962 0.0
0.193654 -0.0223349 0.0