# vtk DataFile Version 3.0
Mesh NS-CD Problem
ASCII
DATASET UNSTRUCTURED_GRID
POINTS 10839 float
-2 0.3 0.0
-2 0.4 0.0
-2 0.35 0.0
-2 0.45 0.0
-2 0.5 0.0
-2 0.55 0.0
-2 0 0.0
-2 0.05 0.0
-2 0.85 0.0
-2 0.9 0.0
-2 0.1 0.0
-2 0.15 0.0
-2 0.25 0.0
-2 0.2 0.0
-1.96653 0.266667 0.0
-1.96524 0.415385 0.0
-1.96485 0.315 0.0
-1.96348 0.363636 0.0
-1.96414 0.464286 0.0
-2 0.6 0.0
-1.96538 0.584615 0.0
-1.96538 0.538462 0.0
-1.94979 0 0.0
-1.96653 0.0666666 0.0
-1.93306 0.0333333 0.0
-2 0.8 0.0
-2 0.75 0.0
-2 0.7 0.0
-2 0.65 0.0
-1.96249 0.7375 0.0
-1.96666 0.833333 0.0
-2 1 0.0
-2 0.95 0.0
-1.96249 0.8875 0.0
-1.96666 0.933333 0.0
-1.96234 0.1125 0.0
-1.96653 0.166667 0.0
-1.93724 0.225 0.0
-1.92971 0.28 0.0
-1.93048 0.380769 0.0
-1.93048 0.423077 0.0
-1.89958 0.3375 0.0
-1.9292 0.484203 0.0
-1.92117 0.530907 0.0
-1.96363 0.636364 0.0
-1.93076 0.576923 0.0
-1.89958 0 0.0
-1.88703 0.0375 0.0
-1.90963 0.08 0.0
-1.86611 0.0666666 0.0
-1.93749 0.775 0.0
-1.93635 0.672727 0.0
-1.92999 0.72 0.0
-1.93332 0.866667 0.0
-1.92856 0.821429 0.0
-1.94999 1 0.0
-1.92499 0.9625 0.0
-1.92499 0.925 0.0
-1.89998 0.9 0.0
-1.89958 0.125 0.0
-1.92827 0.178571 0.0
-1.89958 0.233333 0.0
-1.89045 0.290909 0.0
-1.86096 0.311538 0.0
-1.89241 0.392857 0.0
-1.89334 0.448489 0.0
-1.85655 0.357143 0.0
-1.89614 0.653846 0.0
-1.89427 0.504121 0.0
-1.8952 0.559753 0.0
-1.89614 0.615385 0.0
-1.84937 0 0.0
-1.83264 0.0333333 0.0
-1.85655 0.107143 0.0
-1.81172 0.075 0.0
-1.89998 0.766667 0.0
-1.89089 0.709091 0.0
-1.87498 0.85 0.0
-1.85998 0.79 0.0
-1.88748 0.8125 0.0
-1.89998 1 0.0
-1.88748 0.9625 0.0
-1.86664 0.933333 0.0
-1.85712 0.892857 0.0
-1.87448 0.15 0.0
-1.86611 0.194444 0.0
-1.83264 0.133333 0.0
-1.83264 0.2625 0.0
-1.82068 0.321429 0.0
-1.85664 0.404762 0.0
-1.85674 0.452381 0.0
-1.85683 0.5 0.0
-1.81184 0.375 0.0
-1.85712 0.642857 0.0
-1.85693 0.547619 0.0
-1.85702 0.595238 0.0
-1.79917 0 0.0
-1.78482 0.0357143 0.0
-1.79917 0.116667 0.0
-1.76569 0.0666666 0.0
-1.85452 0.745455 0.0
-1.82689 0.692308 0.0
-1.81815 0.781818 0.0
-1.82497 0.825 0.0
-1.84997 1 0.0
-1.8333 0.958333 0.0
-1.81247 0.8875 0.0
-1.81247 0.925 0.0
-1.81742 0.218182 0.0
-1.82427 0.175 0.0
-1.77634 0.145455 0.0
-1.79144 0.242308 0.0
-1.78482 0.285714 0.0
-1.77469 0.332653 0.0
-1.81215 0.529762 0.0
-1.81194 0.422619 0.0
-1.81203 0.470238 0.0
-1.76714 0.392857 0.0
-1.81234 0.625 0.0
-1.79732 0.571429 0.0
-1.74896 0 0.0
-1.73222 0.0333333 0.0
-1.75398 0.105 0.0
-1.71883 0.07 0.0
-1.79227 0.730769 0.0
-1.78007 0.679121 0.0
-1.75765 0.769231 0.0
-1.78178 0.818182 0.0
-1.78996 0.86 0.0
-1.79996 1 0.0
-1.78568 0.964286 0.0
-1.76663 0.922222 0.0
-1.76569 0.1875 0.0
-1.73222 0.15 0.0
-1.74896 0.25 0.0
-1.73714 0.304762 0.0
-1.76743 0.537202 0.0
-1.72869 0.343878 0.0
-1.76732 0.485119 0.0
-1.76723 0.440476 0.0
-1.72243 0.410714 0.0
-1.76757 0.607143 0.0
-1.69875 0 0.0
-1.68369 0.035 0.0
-1.69875 0.1125 0.0
-1.66528 0.075 0.0
-1.74341 0.708974 0.0
-1.73324 0.665934 0.0
-1.70441 0.74478 0.0
-1.71423 0.785714 0.0
-1.72303 0.826923 0.0
-1.74541 0.854545 0.0
-1.74541 0.890909 0.0
-1.74996 1 0.0
-1.73745 0.9625 0.0
-1.71359 0.927273 0.0
-1.68716 0.153846 0.0
-1.7131 0.214286 0.0
-1.70725 0.275 0.0
-1.69712 0.321939 0.0
-1.72279 0.589286 0.0
-1.72261 0.5 0.0
-1.7227 0.544643 0.0
-1.6827 0.355102 0.0
-1.67773 0.428571 0.0
-1.70763 0.464286 0.0
-1.70369 0.62449 0.0
-1.64854 0 0.0
-1.63181 0.0375 0.0
-1.64137 0.142857 0.0
-1.61764 0.0769231 0.0
-1.69458 0.703846 0.0
-1.67471 0.657437 0.0
-1.66143 0.727637 0.0
-1.67125 0.768571 0.0
-1.67851 0.821429 0.0
-1.68841 0.861538 0.0
-1.70904 0.890909 0.0
-1.69995 1 0.0
-1.68176 0.963636 0.0
-1.67267 0.927273 0.0
-1.65427 0.187143 0.0
-1.66718 0.231429 0.0
-1.66554 0.3 0.0
-1.67802 0.571429 0.0
-1.67792 0.523809 0.0
-1.6367 0.366327 0.0
-1.63682 0.423469 0.0
-1.62568 0.502976 0.0
-1.6629 0.470238 0.0
-1.65254 0.618367 0.0
-1.6059 0.307143 0.0
-1.59833 0 0.0
-1.58288 0.0384615 0.0
-1.60563 0.169643 0.0
-1.58179 0.112271 0.0
-1.56964 0.0714286 0.0
-1.64574 0.690385 0.0
-1.62827 0.751429 0.0
-1.63371 0.791071 0.0
-1.64279 0.857143 0.0
-1.65378 0.896154 0.0
-1.64994 1 0.0
-1.6363 0.963636 0.0
-1.61916 0.930769 0.0
-1.61345 0.209107 0.0
-1.62126 0.248571 0.0
-1.56989 0.196429 0.0
-1.63324 0.553571 0.0
-1.58846 0.535714 0.0
-1.59408 0.361905 0.0
-1.59161 0.402211 0.0
-1.58832 0.464286 0.0
-1.61504 0.598581 0.0
-1.59683 0.64359 0.0
-1.57899 0.274107 0.0
-1.56176 0.322381 0.0
-1.54812 0 0.0
-1.53378 0.0357143 0.0
-1.54593 0.147619 0.0
-1.53385 0.0732143 0.0
-1.53393 0.110714 0.0
-1.58522 0.704286 0.0
-1.58709 0.745 0.0
-1.58896 0.785714 0.0
-1.60695 0.830357 0.0
-1.60707 0.892857 0.0
-1.59993 1 0.0
-1.58454 0.965385 0.0
-1.57135 0.928571 0.0
-1.55209 0.241071 0.0
-1.5291 0.198214 0.0
-1.56936 0.570918 0.0
-1.54369 0.517857 0.0
-1.5464 0.380952 0.0
-1.54564 0.427721 0.0
-1.54488 0.47449 0.0
-1.55026 0.606122 0.0
-1.54222 0.677143 0.0
-1.52943 0.282857 0.0
-1.52143 0.33619 0.0
-1.49792 0 0.0
-1.49802 0.05 0.0
-1.49822 0.15 0.0
-1.49312 0.1 0.0
-1.5423 0.717143 0.0
-1.54419 0.767857 0.0
-1.54727 0.819048 0.0
-1.57122 0.861905 0.0
-1.53553 0.914286 0.0
-1.54992 1 0.0
-1.53563 0.964286 0.0
-1.49842 0.25 0.0
-1.48831 0.2 0.0
-1.5214 0.558929 0.0
-1.49891 0.5 0.0
-1.49871 0.4 0.0
-1.47631 0.45 0.0
-1.49911 0.6 0.0
-1.49921 0.65 0.0
-1.49931 0.7 0.0
-1.48111 0.35 0.0
-1.48351 0.3 0.0
-1.44771 0 0.0
-1.44782 0.05 0.0
-1.44804 0.15 0.0
-1.44793 0.1 0.0
-1.49941 0.75 0.0
-1.49951 0.8 0.0
-1.49981 0.95 0.0
-1.49961 0.85 0.0
-1.49971 0.9 0.0
-1.49991 1 0.0
-1.44826 0.25 0.0
-1.43815 0.2 0.0
-1.47151 0.55 0.0
-1.44881 0.5 0.0
-1.44859 0.4 0.0
-1.42619 0.45 0.0
-1.44913 0.65 0.0
-1.44902 0.6 0.0
-1.44935 0.75 0.0
-1.44924 0.7 0.0
-1.43972 0.35 0.0
-1.43336 0.3 0.0
-1.3975 0 0.0
-1.39762 0.05 0.0
-1.39786 0.15 0.0
-1.39274 0.1 0.0
-1.44957 0.85 0.0
-1.44946 0.8 0.0
-1.4523 0.95 0.0
-1.44968 0.9 0.0
-1.4499 1 0.0
-1.3981 0.25 0.0
-1.38798 0.2 0.0
-1.42141 0.55 0.0
-1.3987 0.5 0.0
-1.39834 0.35 0.0
-1.37845 0.4 0.0
-1.37607 0.45 0.0
-1.40784 0.65 0.0
-1.39894 0.6 0.0
-1.41185 0.75 0.0
-1.39918 0.7 0.0
-1.38322 0.3 0.0
-1.34729 0 0.0
-1.34492 0.05 0.0
-1.34018 0.15 0.0
-1.34255 0.1 0.0
-1.40707 0.85 0.0
-1.39941 0.8 0.0
-1.39977 0.95 0.0
-1.39965 0.9 0.0
-1.39989 1 0.0
-1.33781 0.2 0.0
-1.33544 0.25 0.0
-1.37131 0.55 0.0
-1.34859 0.5 0.0
-1.33833 0.4 0.0
-1.3307 0.35 0.0
-1.32595 0.45 0.0
-1.34885 0.6 0.0
-1.36655 0.65 0.0
-1.36179 0.75 0.0
-1.34911 0.7 0.0
-1.33307 0.3 0.0
-1.29708 0 0.0
-1.29722 0.05 0.0
-1.2975 0.15 0.0
-1.29236 0.1 0.0
-1.35703 0.85 0.0
-1.34937 0.8 0.0
-1.34988 1 0.0
-1.34962 0.9 0.0
-1.35226 0.95 0.0
-1.28528 0.25 0.0
-1.28764 0.2 0.0
-1.28931 0.35 0.0
-1.32121 0.55 0.0
-1.29848 0.5 0.0
-1.28709 0.45 0.0
-1.2982 0.4 0.0
-1.29876 0.6 0.0
-1.31647 0.65 0.0
-1.29918 0.75 0.0
-1.29904 0.7 0.0
-1.28292 0.3 0.0
-1.24687 0 0.0
-1.24702 0.05 0.0
-1.24717 0.1 0.0
-1.24732 0.15 0.0
-1.29946 0.85 0.0
-1.29932 0.8 0.0
-1.29987 1 0.0
-1.29974 0.95 0.0
-1.30462 0.9 0.0
-1.24762 0.25 0.0
-1.23747 0.2 0.0
-1.24792 0.35 0.0
-1.22807 0.4 0.0
-1.27111 0.55 0.0
-1.24837 0.5 0.0
-1.24822 0.45 0.0
-1.24867 0.6 0.0
-1.26639 0.65 0.0
-1.26167 0.75 0.0
-1.24897 0.7 0.0
-1.23277 0.3 0.0
-1.19667 0 0.0
-1.19683 0.05 0.0
-1.18964 0.15 0.0
-1.19198 0.1 0.0
-1.25695 0.85 0.0
-1.24927 0.8 0.0
-1.25223 0.95 0.0
-1.24987 1 0.0
-1.24957 0.9 0.0
-1.1873 0.2 0.0
-1.18496 0.25 0.0
-1.18028 0.35 0.0
-1.17794 0.4 0.0
-1.1981 0.45 0.0
-1.19842 0.55 0.0
-1.19826 0.5 0.0
-1.19858 0.6 0.0
-1.19874 0.65 0.0
-1.19906 0.75 0.0
-1.1989 0.7 0.0
-1.18262 0.3 0.0
-1.14646 0 0.0
-1.14663 0.05 0.0
-1.1418 0.1 0.0
-1.13713 0.2 0.0
-1.14697 0.15 0.0
-1.20691 0.85 0.0
-1.20926 0.8 0.0
-1.20221 0.95 0.0
-1.19986 1 0.0
-1.20456 0.9 0.0
-1.13997 0.3 0.0
-1.14731 0.25 0.0
-1.13781 0.4 0.0
-1.13014 0.35 0.0
-1.12548 0.45 0.0
-1.14815 0.5 0.0
-1.15962 0.55 0.0
-1.14849 0.6 0.0
-1.15745 0.65 0.0
-1.16155 0.75 0.0
-1.14917 0.8 0.0
-1.14883 0.7 0.0
-1.09625 0 0.0
-1.09661 0.1 0.0
-1.09393 0.05 0.0
-1.09697 0.2 0.0
-1.08929 0.15 0.0
-1.15687 0.85 0.0
-1.14985 1 0.0
-1.15219 0.95 0.0
-1.14951 0.9 0.0
-1.09733 0.3 0.0
-1.08465 0.25 0.0
-1.09769 0.4 0.0
-1.08 0.35 0.0
-1.08661 0.45 0.0
-1.09804 0.5 0.0
-1.12082 0.55 0.0
-1.10916 0.8 0.0
-1.10629 0.7 0.0
-1.0984 0.6 0.0
-1.11616 0.65 0.0
-1.11149 0.75 0.0
-1.04604 0 0.0
-1.04623 0.05 0.0
-1.04642 0.1 0.0
-1.0468 0.2 0.0
-1.03911 0.15 0.0
-1.09948 0.9 0.0
-1.0993 0.85 0.0
-1.09984 1 0.0
-1.09966 0.95 0.0
-1.04718 0.3 0.0
-1.03449 0.25 0.0
-1.04756 0.4 0.0
-1.02986 0.35 0.0
-1.04775 0.45 0.0
-1.04794 0.5 0.0
-1.04813 0.55 0.0
-1.05911 0.8 0.0
-1.04831 0.6 0.0
-1.06376 0.7 0.0
-1.0485 0.65 0.0
-1.04888 0.75 0.0
-0.995833 0 0.0
-0.991231 0.1 0.0
-0.996033 0.05 0.0
-0.986629 0.2 0.0
-0.98893 0.15 0.0
-1.05447 0.9 0.0
-1.04926 0.85 0.0
-1.04983 1 0.0
-1.04964 0.95 0.0
-0.984328 0.25 0.0
-0.99703 0.3 0.0
-0.997429 0.4 0.0
-0.997628 0.45 0.0
-0.979726 0.35 0.0
-0.997827 0.5 0.0
-0.998027 0.55 0.0
-0.998226 0.6 0.0
-0.961416 0.475 0.0
-1.00907 0.8 0.0
-0.998426 0.65 0.0
-0.998625 0.7 0.0
-1.01138 0.75 0.0
-0.945625 0 0.0
-0.946044 0.1 0.0
-0.943334 0.05 0.0
-0.946463 0.2 0.0
-0.938752 0.15 0.0
-1.00444 0.9 0.0
-1.00675 0.85 0.0
-0.999821 1 0.0
-1.00213 0.95 0.0
-0.93417 0.25 0.0
-0.946881 0.3 0.0
-0.9473 0.4 0.0
-0.929588 0.35 0.0
-0.925005 0.45 0.0
-0.960371 0.525 0.0
-0.959325 0.575 0.0
-0.958279 0.625 0.0
-0.922714 0.5 0.0
-0.959017 0.8 0.0
-0.957233 0.675 0.0
-0.952999 0.7125 0.0
-0.948766 0.75 0.0
-0.895417 0 0.0
-0.895855 0.1 0.0
-0.893136 0.05 0.0
-0.896294 0.2 0.0
-0.888573 0.15 0.0
-0.949184 0.85 0.0
-0.954415 0.9 0.0
-0.949812 1 0.0
-0.949603 0.95 0.0
-0.884011 0.25 0.0
-0.896733 0.3 0.0
-0.874887 0.45 0.0
-0.879449 0.35 0.0
-0.897171 0.4 0.0
-0.920423 0.55 0.0
-0.918132 0.6 0.0
-0.915841 0.65 0.0
-0.872606 0.5 0.0
-0.908968 0.8 0.0
-0.91355 0.7 0.0
-0.898707 0.75 0.0
-0.845208 0 0.0
-0.845438 0.05 0.0
-0.845667 0.1 0.0
-0.845896 0.15 0.0
-0.833853 0.25 0.0
-0.846126 0.2 0.0
-0.899146 0.85 0.0
-0.904386 0.9 0.0
-0.899584 0.95 0.0
-0.899804 1 0.0
-0.838062 0.35 0.0
[...]
POINT_DATA 10839
VECTORS Velocity float
0.21 0 0.0
0.24 0 0.0
0.2275 0 0.0
0.2475 0 0.0
0.25 0 0.0
0.2475 0 0.0
0 0 0.0
0.0475 0 0.0
0.1275 0 0.0
0.09 0 0.0
0.09 0 0.0
0.1275 0 0.0
0.1875 0 0.0
0.16 0 0.0
0.195558 -2.99627e-05 0.0
0.242839 -3.24723e-05 0.0
0.215776 -3.55271e-05 0.0
0.231405 -3.73592e-05 0.0
0.248722 -2.68718e-05 0.0
0.24 0 0.0
0.242838 -9.50892e-06 0.0
0.248518 -1.72047e-05 0.0
0 0 0.0
0.0622238 -5.37294e-06 0.0
0.0322289 -4.23262e-06 0.0
0.16 0 0.0
0.1875 0 0.0
0.21 0 0.0
0.2275 0 0.0
0.193594 -1.41427e-06 0.0
0.138889 -3.75101e-06 0.0
0 0 0.0
0.0475 0 0.0
0.0998428 -3.25615e-06 0.0
0.0622214 -5.11127e-07 0.0
0.0998463 -1.12999e-05 0.0
0.138891 -1.6418e-05 0.0
0.174383 -4.70179e-05 0.0
0.201607 -6.87369e-05 0.0
0.235781 -7.30615e-05 0.0
0.244076 -6.58027e-05 0.0
0.223596 -0.000113722 0.0
0.249739 -4.85075e-05 0.0
0.249031 -3.71549e-05 0.0
0.231403 -4.64791e-06 0.0
0.244074 -1.7283e-05 0.0
0 0 0.0
0.0361092 -3.74935e-06 0.0
0.0736108 -1.32225e-05 0.0
0.0622405 -4.71327e-07 0.0
0.174377 -2.29616e-06 0.0
0.220163 -1.74345e-07 0.0
0.201601 2.33493e-06 0.0
0.115554 -7.35955e-06 0.0
0.146686 -6.35533e-06 0.0
0 0 0.0
0.0360931 -1.4628e-07 0.0
0.069371 -3.24473e-06 0.0
0.0899933 -1.26926e-05 0.0
0.109393 -2.7143e-05 0.0
0.146695 -3.87829e-05 0.0
0.178912 -8.58657e-05 0.0
0.206296 -0.000120096 0.0
0.214499 -0.000172303 0.0
0.238508 -0.000117947 0.0
0.247323 -9.47298e-05 0.0
0.229584 -0.00018151 0.0
0.226322 7.7508e-06 0.0
0.249955 -6.13853e-05 0.0
0.246404 -3.00193e-05 0.0
0.23667 -5.9625e-06 0.0
0 0 0.0
0.03223 9.16878e-06 0.0
0.0956983 -8.91908e-06 0.0
0.0693955 4.59668e-05 0.0
0.178896 3.75383e-06 0.0
0.20628 1.45735e-05 0.0
0.127506 -1.89076e-05 0.0
0.165922 5.81813e-06 0.0
0.152354 -6.46165e-06 0.0
0 0 0.0
0.0360893 -3.44329e-06 0.0
0.062205 -2.12411e-05 0.0
0.0956555 -3.76528e-05 0.0
0.127538 -4.31292e-05 0.0
0.156685 -8.81631e-05 0.0
0.11563 -1.95621e-05 0.0
0.193655 -0.000193025 0.0
0.21813 -0.000253966 0.0
0.240898 -0.000163518 0.0
0.247684 -0.000130911 0.0
0.249943 -8.78991e-05 0.0
0.234339 -0.000262945 0.0
0.229567 2.25963e-05 0.0
0.247678 -4.33161e-05 0.0
0.240885 -3.48168e-06 0.0
0 0 0.0
0.0343988 3.42914e-05 0.0
0.103158 3.16972e-05 0.0
0.0621964 9.8388e-05 0.0
0.189768 2.98777e-05 0.0
0.213013 6.41045e-05 0.0
0.170629 3.16808e-05 0.0
0.14442 -1.70867e-05 0.0
0 0 0.0
0.039895 -2.49725e-05 0.0
0.09985 -8.66085e-05 0.0
0.0693255 -8.01278e-05 0.0
0.170688 -0.000166037 0.0
0.144478 -8.56939e-05 0.0
0.124497 -1.75902e-05 0.0
0.183728 -0.000252617 0.0
0.204163 -0.000328128 0.0
0.221999 -0.000377862 0.0
0.249004 -7.07644e-05 0.0
0.243934 -0.000221182 0.0
0.249011 -0.000158223 0.0
0.238419 -0.000356132 0.0
0.234311 5.23553e-05 0.0
0.244782 -7.84231e-07 0.0
0 0 0.0
0.0320719 5.55281e-05 0.0
0.0941188 0.0001006 0.0
0.065037 0.000139014 0.0
0.196784 0.000105647 0.0
0.217886 0.000138187 0.0
0.177643 0.000127616 0.0
0.148875 -4.7627e-06 0.0
0.12047 -8.26372e-05 0.0
0 0 0.0
0.0343361 -4.50513e-05 0.0
0.0716349 -0.000150589 0.0
0.15259 -0.000164732 0.0
0.127872 -4.8437e-05 0.0
0.187705 -0.000384155 0.0
0.21196 -0.000510754 0.0
0.248421 -4.88566e-05 0.0
0.225586 -0.000542358 0.0
0.249586 -0.00017539 0.0
0.246294 -0.000273843 0.0
0.241808 -0.000454576 0.0
0.238382 8.81284e-05 0.0
0 0 0.0
0.0334895 6.56922e-05 0.0
0.100172 7.04876e-05 0.0
0.0693576 7.35298e-05 0.0
0.206357 0.000235134 0.0
0.222384 0.000254461 0.0
0.190257 0.000346747 0.0
0.168642 0.000201434 0.0
0.143414 2.03857e-05 0.0
0.124477 -9.83424e-05 0.0
0.0972376 -0.000179235 0.0
0 0 0.0
0.0358551 -7.90641e-05 0.0
0.0672369 -0.000187727 0.0
0.130802 -0.000176911 0.0
0.168782 -0.000403223 0.0
0.199588 -0.000622278 0.0
0.218315 -0.000713406 0.0
0.241764 0.00012546 0.0
0.249675 -0.000164805 0.0
0.24769 -8.25343e-06 0.0
0.228864 -0.000752043 0.0
0.244481 -0.000543638 0.0
0.248371 -0.000316256 0.0
0.234263 0.000282273 0.0
0 0 0.0
0.0357357 2.82948e-05 0.0
0.123323 -0.000365788 0.0
0.0711902 -0.000157367 0.0
0.208465 0.000435675 0.0
0.225015 0.000482975 0.0
0.198336 0.000622565 0.0
0.17823 0.000463701 0.0
0.147183 0.000189227 0.0
0.119655 -5.2138e-05 0.0
0.097289 -0.000185724 0.0
0 0 0.0
0.0346184 -8.29423e-05 0.0
0.0671838 -0.000152958 0.0
0.152949 -0.000583442 0.0
0.178413 -0.000747014 0.0
0.21013 -0.000915906 0.0
0.244438 0.000161738 0.0
0.248911 -7.71323e-05 0.0
0.231804 -0.0010041 0.0
0.243531 -0.000733333 0.0
0.249135 -0.000204651 0.0
0.248537 -0.000370528 0.0
0.235548 0.000468746 0.0
0.212862 -0.00145498 0.0
0 0 0.0
0.0367533 -7.93456e-05 0.0
0.142065 -0.000962019 0.0
0.100762 -0.000847298 0.0
0.0668456 -0.000461233 0.0
0.21367 0.000726269 0.0
0.187156 0.00085891 0.0
0.165913 0.000656821 0.0
0.123068 0.000220447 0.0
0.0932391 -3.84351e-05 0.0
0 0 0.0
0.0345027 -5.07478e-05 0.0
0.0642147 3.69079e-05 0.0
0.166362 -0.00113898 0.0
0.18739 -0.00123388 0.0
0.159166 -0.0017279 0.0
0.246379 0.000167151 0.0
0.247563 9.1969e-05 0.0
0.230436 -0.00138729 0.0
0.239627 -0.00113198 0.0
0.247616 -0.000596683 0.0
0.239545 0.000539412 0.0
0.2288 0.000950009 0.0
0.199378 -0.00181222 0.0
0.218199 -0.00194382 0.0
0 0 0.0
0.0345925 -0.000208511 0.0
0.127539 -0.00188727 0.0
0.0690262 -0.000862396 0.0
0.100189 -0.0016225 0.0
0.208202 0.00132347 0.0
0.190353 0.00134523 0.0
0.169148 0.0012212 0.0
0.14177 0.00074776 0.0
0.0961182 0.000355404 0.0
0 0 0.0
0.0329278 3.54164e-05 0.0
0.066499 0.000397677 0.0
0.183854 -0.00221509 0.0
0.160422 -0.0025926 0.0
0.243721 0.000527052 0.0
0.247969 -5.12755e-05 0.0
0.234807 -0.00171029 0.0
0.243351 -0.00120056 0.0
0.247691 -0.000624973 0.0
0.237493 0.00103157 0.0
0.218017 0.00175152 0.0
0.203059 -0.00261649 0.0
0.222462 -0.00242831 0.0
0 0 0.0
0.0487817 -0.00065071 0.0
0.129711 -0.00311024 0.0
0.0926106 -0.00218953 0.0
0.202803 0.00196537 0.0
0.178937 0.00201527 0.0
0.149398 0.00185564 0.0
0.120065 0.00109095 0.0
0.0793715 0.00103992 0.0
0 0 0.0
0.0343012 0.000173983 0.0
0.188204 -0.00337222 0.0
0.161574 -0.00369572 0.0
0.24461 0.000610041 0.0
0.2476 -0.000306602 0.0
0.238194 -0.00199487 0.0
0.244878 -0.00132374 0.0
0.238024 0.00139581 0.0
0.226114 0.00208796 0.0
0.209417 0.00262881 0.0
0.226145 -0.00292545 0.0
0.209616 -0.00343269 0.0
0 0 0.0
0.0503954 -0.000983243 0.0
0.130482 -0.00464493 0.0
0.0941764 -0.00309203 0.0
0.187818 0.00294362 0.0
0.161117 0.00306438 0.0
0.0483654 0.000602737 0.0
0.129217 0.00283879 0.0
0.0919239 0.00194308 0.0
0 0 0.0
0.187944 -0.00476509 0.0
0.161596 -0.00533326 0.0
0.244667 0.000688432 0.0
0.246559 -0.000358521 0.0
0.237315 -0.00258123 0.0
0.243723 -0.00168101 0.0
0.225372 0.00288966 0.0
0.237117 0.00191759 0.0
0.187468 0.0042959 0.0
0.208856 0.00368697 0.0
0.225519 -0.00368487 0.0
0.209044 -0.00463036 0.0
0 0 0.0
0.0526309 -0.00131976 0.0
0.131586 -0.00628366 0.0
0.096922 -0.0042355 0.0
0.129876 0.00436318 0.0
0.161058 0.0046131 0.0
0.0497968 0.000928383 0.0
0.0935725 0.00294874 0.0
0 0 0.0
0.187405 -0.00644868 0.0
0.16157 -0.00720626 0.0
0.2435 0.000970339 0.0
0.245227 -0.000395111 0.0
0.224663 -0.00456389 0.0
0.235598 -0.0036257 0.0
0.242295 -0.00208247 0.0
0.224513 0.00367981 0.0
0.235897 0.00254704 0.0
0.186999 0.00549132 0.0
0.207987 0.00498737 0.0
0.208165 -0.00606285 0.0
0 0 0.0
0.0554456 -0.00164092 0.0
0.133505 -0.00812681 0.0
0.10014 -0.00515609 0.0
0.130658 0.00572984 0.0
0.160902 0.00639466 0.0
0.051948 0.00125388 0.0
0.0958388 0.00394416 0.0
0 0 0.0
0.161633 -0.0091686 0.0
0.186432 -0.00886136 0.0
0.241983 0.00129193 0.0
0.243503 -0.000448203 0.0
0.234239 -0.00432343 0.0
0.222755 -0.00625669 0.0
0.240443 -0.0025533 0.0
0.234311 0.00329302 0.0
0.22342 0.00458933 0.0
0.18619 0.00729205 0.0
0.206764 0.00651326 0.0
0.206924 -0.00772899 0.0
0 0 0.0
0.058393 -0.00182424 0.0
0.135411 -0.00928787 0.0
0.104046 -0.00585696 0.0
0.132076 0.00730712 0.0
0.160823 0.00830316 0.0
0 0 0.0
0.0989 0.00483229 0.0
0.0543843 0.00151222 0.0
0.185448 -0.0109074 0.0
0.161985 -0.0110839 0.0
0.221181 -0.00744305 0.0
0.240074 0.00167169 0.0
0.241372 -0.000502216 0.0
0.238702 -0.00296202 0.0
0.232655 -0.00508879 0.0
0.232295 0.00414202 0.0
0.221724 0.00584032 0.0
0.184885 0.00974863 0.0
0.205168 0.00820883 0.0
0.205346 -0.00955266 0.0
0 0 0.0
0.0619341 -0.00190107 0.0
0.107996 -0.00623804 0.0
0.138256 -0.0103296 0.0
0.134419 0.00888653 0.0
0.160955 0.0101483 0.0
0 0 0.0
0.0575379 0.00171975 0.0
0.102155 0.00547872 0.0
0.184736 -0.0123476 0.0
0.162764 -0.0126579 0.0
0.219357 -0.008699 0.0
0.229134 -0.00657932 0.0
0.237696 0.00209323 0.0
0.238748 -0.000559262 0.0
0.236677 -0.00341049 0.0
0.229811 0.00507834 0.0
0.219587 0.00721759 0.0
0.184053 0.0111523 0.0
0.203272 0.00996935 0.0
0.203493 -0.0113935 0.0
0 0 0.0
0.0655093 -0.00186755 0.0
0.142508 -0.0109092 0.0
0.113326 -0.00632267 0.0
0.136681 0.00974402 0.0
0.161492 0.0117555 0.0
0.0607006 0.00181962 0.0
0 0 0.0
0.106738 0.00594504 0.0
0.164116 -0.0137606 0.0
0.183856 -0.0143799 0.0
0.215788 -0.0107248 0.0
0.226022 -0.00767823 0.0
0.233602 -0.00400776 0.0
0.233353 0.00277097 0.0
0.235608 -0.000637398 0.0
0.226833 0.0060364 0.0
0.216041 0.00913726 0.0
0.182898 0.0131888 0.0
0.20117 0.0116108 0.0
0.201496 -0.013078 0.0
0 0 0.0
0.069075 -0.00177936 0.0
0.118187 -0.00611272 0.0
0.166091 -0.014244 0.0
0.145943 -0.0109227 0.0
0.139971 0.010305 0.0
0.1623 0.0126935 0.0
0.064053 0.00178383 0.0
0 0 0.0
0.110829 0.00602735 0.0
0.199826 -0.0142396 0.0
0.183619 -0.0151786 0.0
0.223246 -0.00847432 0.0
0.212859 -0.0119644 0.0
0.228241 -0.00483894 0.0
0.231935 -0.000720946 0.0
0.230578 0.00311038 0.0
0.223409 0.00692673 0.0
0.213591 0.0101565 0.0
0.182438 0.0140131 0.0
0.164289 0.0133818 0.0
0.199064 0.0129104 0.0
0 0 0.0
0.122546 -0.00563281 0.0
0.0723436 -0.00166179 0.0
0.168149 -0.0141137 0.0
0.151073 -0.0103114 0.0
0.143796 0.0103224 0.0
0 0 0.0
0.0673139 0.00165456 0.0
0.115982 0.00576215 0.0
0.198321 -0.0149438 0.0
0.183769 -0.0156378 0.0
0.220277 -0.00913157 0.0
0.209846 -0.0127765 0.0
0.225041 -0.00519226 0.0
0.227788 -0.000809781 0.0
0.227542 0.00338946 0.0
0.16603 0.0132712 0.0
0.19738 0.0135786 0.0
0.219643 0.00758872 0.0
0.211059 0.0109149 0.0
0.182251 0.0145154 0.0
0 0 0.0
0.0749793 -0.00144417 0.0
0.12703 -0.0049636 0.0
0.171032 -0.0133524 0.0
0.155616 -0.00932273 0.0
0.120461 0.00521626 0.0
0.148544 0.00969148 0.0
0 0 0.0
0.070526 0.00144141 0.0
0.196879 -0.0151 0.0
0.184525 -0.0151522 0.0
0.216429 -0.00961789 0.0
0.206977 -0.0130105 0.0
0.221636 -0.0054498 0.0
0.223271 -0.000922722 0.0
0.221239 0.00364612 0.0
0.16864 0.0124735 0.0
0.215689 0.00786491 0.0
0.19595 0.0137158 0.0
0.206868 0.0113796 0.0
0.182684 0.0140291 0.0
0 0 0.0
0.13132 -0.00408307 0.0
0.077548 -0.00113646 0.0
0.174791 -0.0117201 0.0
0.159918 -0.00805495 0.0
0.124233 0.00451397 0.0
0.152833 0.0086387 0.0
0 0 0.0
0.0729274 0.00129129 0.0
0.185676 -0.0139859 0.0
0.195822 -0.0145158 0.0
0.212614 -0.00965294 0.0
0.217205 -0.00557 0.0
0.204398 -0.0125949 0.0
0.218622 -0.00104217 0.0
0.216791 0.00350846 0.0
0.211782 0.00767611 0.0
0.215091 -0.00336955 0.0
0.171552 0.011079 0.0
0.204051 0.0109344 0.0
0.194304 0.0127945 0.0
0.183336 0.0131633 0.0
0 0 0.0
0.134356 -0.00336318 0.0
0.0795587 -0.000949458 0.0
0.177379 -0.0103841 0.0
0.163827 -0.00667922 0.0
0.127863 0.0036372 0.0
0.156304 0.0074801 0.0
0 0 0.0
0.0750057 0.000992456 0.0
0.187117 -0.0123271 0.0
0.195221 -0.0132919 0.0
0.209061 -0.0092577 0.0
0.202226 -0.0116268 0.0
0.211131 -0.00537571 0.0
0.214731 0.0010658 0.0
0.211503 0.00526605 0.0
0.205707 0.00876416 0.0
0.211978 -0.00129954 0.0
0.174446 0.00924846 0.0
0.197974 0.0110324 0.0
0.191386 0.0115396 0.0
0.184728 0.0109621 0.0
0 0 0.0
0.13709 -0.00265066 0.0
0.0810939 -0.000736388 0.0
0.18034 -0.00862125 0.0
0.167204 -0.00536327 0.0
0.160476 0.00572282 0.0
0.130855 0.00273214 0.0
0 0 0.0
0.0767934 0.000679398 0.0
0.188684 -0.0104428 0.0
0.194973 -0.0116537 0.0
0.207453 -0.00504205 0.0
0.200505 -0.0102934 0.0
0.205947 -0.0084928 0.0
0.21025 0.00276793 0.0
0.206176 0.00630967 0.0
0.200252 0.00884584 0.0
0.208051 -0.00151056 0.0
0.177196 0.00725458 0.0
0.193227 0.0099264 0.0
0.186058 0.00881129 0.0
0 0 0.0
0.0821644 -0.000589743 0.0
0.139301 -0.00205574 0.0
0.169613 -0.00437676 0.0
0.190204 -0.0085831 0.0
0.183003 -0.00696509 0.0
0.163498 0.0041887 0.0
0.133146 0.001916 0.0
0.0778156 0.00048307 0.0
0 0 0.0
0.199414 -0.0090798 0.0
0.195026 -0.00988038 0.0
0.205027 -0.00474722 0.0
0.203357 -0.00755604 0.0
0.198503 0.00703934 0.0
0.206575 0.00199845 0.0
0.203237 0.00499419 0.0
0.20475 -0.00176262 0.0
0.187306 0.00656529 0.0
0.179922 0.00488686 0.0
0.192914 0.00712512 0.0
0 0 0.0
0.0831634 -0.000456049 0.0
0.141124 -0.00159452 0.0
0.171919 -0.00342123 0.0
0.191314 -0.00732825 0.0
0.185697 -0.00532343 0.0
0.165804 0.00280696 0.0
0.134907 0.00112031 0.0
0.0785264 0.000274161 0.0
0 0 0.0
0.167561 0.00161514 0.0
0.198593 -0.00790249 0.0
0.195327 -0.00773481 0.0
0.200609 -0.0062399 0.0
0.202964 -0.00446141 0.0
0.196778 0.00443251 0.0
0.200854 0.00352331 0.0
0.203519 0.00111263 0.0
0.202092 -0.00205049 0.0
0.188447 0.00445583 0.0
0.181787 0.00313928 0.0
0.192911 0.00496965 0.0
0 0 0.0
0.0839405 -0.00036973 0.0
0.142453 -0.00132562 0.0
0.173761 -0.00277705 0.0
0.192594 -0.00595498 0.0
0.18751 -0.00432602 0.0
0.0788001 0.000105435 0.0
0.135911 0.000530736 0.0
0 0 0.0
0.168507 0.000796531 0.0
0.197929 -0.00668321 0.0
0.195703 -0.00642311 0.0
0.199277 -0.00549396 0.0
0.200852 -0.00417251 0.0
0.196023 0.00293806 0.0
0.198979 0.00205775 0.0
0.200056 -0.00239578 0.0
0.200129 -0.000219368 0.0
0.189105 0.00305232 0.0
0.183082 0.0016808 0.0
0.192924 0.00301813 0.0
0 0 0.0
0.0846526 -0.000347184 0.0
0.143508 -0.00120499 0.0
0.175399 -0.00233177 0.0
0.193926 -0.0047768 0.0
0.19609 -0.00548679 0.0
0.188956 -0.00368499 0.0
0.078962 -3.40927e-05 0.0
0.136397 7.7506e-05 0.0
0 0 0.0
0.169215 3.44801e-05 0.0
0.197411 -0.00550341 0.0
0.198485 -0.00507295 0.0
0.199279 -0.00402344 0.0
0.198871 -0.00268475 0.0
0.195422 0.00157248 0.0
0.197553 0.000696699 0.0
0.198488 -0.0010959 0.0
0.183996 0.000501842 0.0
0.189783 0.00145207 0.0
0.192942 0.00135415 0.0
0 0 0.0
0.0852905 -0.00039221 0.0
0.144514 -0.00119779 0.0
0.176609 -0.00221695 0.0
0.194641 -0.00437711 0.0
0.196486 -0.00492355 0.0
0.190164 -0.00335554 0.0
0.0788632 -0.000143711 0.0
0.136555 -0.00026805 0.0
0 0 0.0
0.184346 -0.000242119 0.0
0.136389 -0.000516522 0.0
0.16949 -0.000615213 0.0
0.197279 -0.00506178 0.0
0.197911 -0.00480571 0.0
0.197763 -0.00409409 0.0
0.197948 -0.00299989 0.0
0.197499 -0.001738 0.0
0.194851 0.000148457 0.0
0.196131 -0.000960782 0.0
0.19026 -0.000110971 0.0
0.192931 0.000165155 0.0
0.197255 -0.00491587 0.0
0 0 0.0
0.0859779 -0.000428541 0.0
0.177686 -0.00228836 0.0
0.145478 -0.00130556 0.0
0.196896 -0.00473553 0.0
0.195616 -0.00412107 0.0
0.191166 -0.00331717 0.0
0.0786362 -0.000212785 0.0
0 0 0.0
0.19041 -0.000855503 0.0
0.184595 -0.000988478 0.0
0.169472 -0.00104678 0.0
0.0781433 -0.0002386 0.0
0.136086 -0.000720961 0.0
0.197439 -0.00473921 0.0
0.197232 -0.00428129 0.0
0.197013 -0.00348054 0.0
0.19649 -0.00389447 0.0
0.196722 -0.0023486 0.0
0.194391 -0.0010471 0.0
0.195404 -0.00196183 0.0
0.192836 -0.000823267 0.0
0.197268 -0.0049785 0.0
0.0866805 -0.000502988 0.0
0 0 0.0
0.178521 -0.0024682 0.0
0.146462 -0.00149037 0.0
0.197277 -0.00485588 0.0
0.196157 -0.00421158 0.0
0.192091 -0.00351974 0.0
0 0 0.0
0.190381 -0.00166451 0.0
0.184476 -0.00167256 0.0
0.169168 -0.00133167 0.0
0.077746 -0.000290266 0.0
0.135552 -0.000880735 0.0
0.197052 -0.00505141 0.0
0.196832 -0.00455696 0.0
0.196064 -0.00434148 0.0
0.195661 -0.00341893 0.0
0.193978 -0.00204789 0.0
0.194818 -0.00285039 0.0
0.192598 -0.00204506 0.0
0.197382 -0.00531918 0.0
0 0 0.0
0.0876402 -0.000591306 0.0
0.179539 -0.00283203 0.0
0.147475 -0.00173835 0.0
0.192929 -0.00393473 0.0
0.197671 -0.00526202 0.0
0.196969 -0.00466049 0.0
0 0 0.0
0 0 0.0
0.190186 -0.00233304 0.0
0.184237 -0.00214695 0.0
0.168757 -0.00162501 0.0
0.134904 -0.00101998 0.0
0.0772111 -0.0003454 0.0
0.196908 -0.00554268 0.0
0.196437 -0.00507125 0.0
0.19441 -0.00350145 0.0
0.195607 -0.00500999 0.0
0.195107 -0.0041666 0.0
0.193577 -0.00291566 0.0
0.192296 -0.00281357 0.0
0.196824 -0.00608938 0.0
0.197484 -0.00590568 0.0
0.0887995 -0.000715603 0.0
0.148727 -0.00206774 0.0
0.180678 -0.00335052 0.0
0.193682 -0.00442067 0.0
0.198055 -0.00590796 0.0
0.197451 -0.00515837 0.0
0 0 0.0
0 0 0.0
0.183814 -0.00247115 0.0
0.189709 -0.00303633 0.0
0.134179 -0.00113363 0.0
0.168013 -0.00191987 0.0
0.0765732 -0.000383162 0.0
0.196027 -0.00605459 0.0
0.195194 -0.0057831 0.0
0.191909 -0.00349907 0.0
0.194014 -0.00412549 0.0
0.194727 -0.00476134 0.0
0.192983 -0.00394974 0.0
0.196758 -0.00673254 0.0
0.197682 -0.00706192 0.0
0.198425 -0.00681692 0.0
0.0901669 -0.00091186 0.0
0.150286 -0.00252033 0.0
0.182085 -0.00418098 0.0
0.194589 -0.00518141 0.0
0.198251 -0.00623633 0.0
0 0 0.0
0 0 0.0
0.1831 -0.00292776 0.0
0.18921 -0.0035621 0.0
0.133266 -0.00127417 0.0
0.167218 -0.00216548 0.0
0.0758707 -0.000415177 0.0
0.19436 -0.00537875 0.0
0.19479 -0.0066415 0.0
0.195734 -0.0069538 0.0
0.191419 -0.00413519 0.0
0.193528 -0.00490562 0.0
0.192484 -0.00469024 0.0
0.188582 -0.00407062 0.0
0.196586 -0.00818354 0.0
0 0 0.0
0.197744 -0.0082261 0.0
0.198922 -0.00738277 0.0
0.198766 -0.00794594 0.0
0.0917776 -0.00112516 0.0
0.1834 -0.00495541 0.0
0.152357 -0.00321943 0.0
0.195804 -0.00647982 0.0
0 0 0.0
0 0 0.0
0 0 0.0
0 0 0.0
0 0 0.0
0.0751637 -0.000446368 0.0
0.166359 -0.00241563 0.0
0.182373 -0.00330388 0.0
0.132419 -0.00138575 0.0
0.193864 -0.00621095 0.0
0.194336 -0.00762069 0.0
0.195431 -0.00799759 0.0
0.192 -0.00527825 0.0
0.190805 -0.00476088 0.0
0.192752 -0.00602384 0.0
0.190214 -0.00529459 0.0
0.187984 -0.00444369 0.0
0.196359 -0.00948703 0.0
0.197772 -0.00956518 0.0
0 0 0.0
-0.000409397 0.000243865 0.0
0 0 0.0
-0.00081854 0.00904124 0.0
0.199086 -0.00937511 0.0
0.199432 -0.00842645 0.0
0.093973 -0.00143648 0.0
0.18507 -0.00605768 0.0
0.154659 -0.00405965 0.0
0.196975 -0.00790303 0.0
0 0 0.0
0 0 0.0
0 0 0.0
-0.000702413 0.00661526 0.0
-0.000527185 0.00156843 0.0
-0.00139219 0.00143578 0.0
0 0 0.0
0.0743237 -0.000485009 0.0
0.165471 -0.00261836 0.0
0.181481 -0.00367995 0.0
0.131204 -0.00152338 0.0
0.193321 -0.00712682 0.0
0.193796 -0.00871638 0.0
0.195033 -0.00918993 0.0
0.191451 -0.00588877 0.0
0.192242 -0.00671242 0.0
0.189513 -0.00582936 0.0
0.186857 -0.00508201 0.0
0.196044 -0.0109675 0.0
0.197292 -0.0110371 0.0
0.198539 -0.010923 0.0
0 0 0.0
-0.00160153 0.000564824 0.0
0 0 0.0
0 0 0.0
-0.00271695 0.015788 0.0
-0.00291521 0.0124339 0.0
0.199593 -0.0107072 0.0
0.200079 -0.0101404 0.0
0.157137 -0.00503246 0.0
0.0965152 -0.00186193 0.0
0.187036 -0.00750939 0.0
0.198157 -0.00968192 0.0
0 0 0.0
-0.00196836 0.00554041 0.0
-0.00248883 0.00881263 0.0
-0.00234972 0.00366205 0.0
-0.00367781 0.00239346 0.0
0 0 0.0
0.0734357 -0.000523499 0.0
0.164339 -0.00286155 0.0
0.180436 -0.00404998 0.0
0.130011 -0.0016508 0.0
0.192677 -0.00811575 0.0
0.193137 -0.00991862 0.0
0.194508 -0.0105452 0.0
0.190404 -0.00693075 0.0
0.191656 -0.00741691 0.0
0.188567 -0.00648924 0.0
0.179348 -0.00444408 0.0
0.185839 -0.00560974 0.0
0.19566 -0.0123028 0.0
0.197537 -0.0124276 0.0
0.199401 -0.0125488 0.0
0 0 0.0
-0.00388318 0.000851937 0.0
0 0 0.0
0 0 0.0
0 0 0.0
0 0 0.0
-0.00571258 0.0120177 0.0
-0.000820994 0.0133136 0.0
-0.00274647 0.0186111 0.0
-0.00603803 0.0210198 0.0
-0.00541267 0.0166207 0.0
0 0 0.0
-0.000276633 0.0189113 0.0
0.200785 -0.0128568 0.0
0.199206 -0.0114418 0.0
0 0 0.0
0.100156 -0.00252985 0.0
0.160552 -0.00638542 0.0
0.189736 -0.00990096 0.0
0 0 0.0
0 0 0.0
-0.00482897 0.00809854 0.0
-0.00541835 0.00524816 0.0
-0.0067978 0.00295364 0.0
0 0 0.0
0.0724171 -0.000563365 0.0
0.162891 -0.00314712 0.0
0.128676 -0.00177596 0.0
0.178268 -0.00473777 0.0
0.19191 -0.00918636 0.0
0.192534 -0.0108976 0.0
0.193826 -0.0120743 0.0
0.18962 -0.00759046 0.0
0.190809 -0.00834886 0.0
0.187488 -0.00715857 0.0
0.184918 -0.00599583 0.0
0.198341 -0.0139005 0.0
0.195136 -0.0137785 0.0
0.196985 -0.0152686 0.0
0.199306 -0.0156287 0.0
0.201217 -0.0156884 0.0
0 0 0.0
-0.00576369 0.000871772 0.0
-0.000506884 0.0189123 0.0
-0.00236892 0.0287474 0.0
-0.000836983 0.0159114 0.0
-0.00837887 0.0148467 0.0