# vtk DataFile Version 3.0
Mesh NS-CD Problem
ASCII
DATASET UNSTRUCTURED_GRID
POINTS 10839 float
-2 0.3 0.0
-2 0.4 0.0
-2 0.35 0.0
-2 0.45 0.0
-2 0.5 0.0
-2 0.55 0.0
-2 0 0.0
-2 0.05 0.0
-2 0.85 0.0
-2 0.9 0.0
-2 0.1 0.0
-2 0.15 0.0
-2 0.25 0.0
-2 0.2 0.0
-1.96653 0.266667 0.0
-1.96524 0.415385 0.0
-1.96485 0.315 0.0
-1.96348 0.363636 0.0
-1.96414 0.464286 0.0
-2 0.6 0.0
-1.96538 0.584615 0.0
-1.96538 0.538462 0.0
-1.94979 0 0.0
-1.96653 0.0666666 0.0
-1.93306 0.0333333 0.0
-2 0.8 0.0
-2 0.75 0.0
-2 0.7 0.0
-2 0.65 0.0
-1.96249 0.7375 0.0
-1.96666 0.833333 0.0
-2 1 0.0
-2 0.95 0.0
-1.96249 0.8875 0.0
-1.96666 0.933333 0.0
-1.96234 0.1125 0.0
-1.96653 0.166667 0.0
-1.93724 0.225 0.0
-1.92971 0.28 0.0
-1.93048 0.380769 0.0
-1.93048 0.423077 0.0
-1.89958 0.3375 0.0
-1.9292 0.484203 0.0
-1.92117 0.530907 0.0
-1.96363 0.636364 0.0
-1.93076 0.576923 0.0
-1.89958 0 0.0
-1.88703 0.0375 0.0
-1.90963 0.08 0.0
-1.86611 0.0666666 0.0
-1.93749 0.775 0.0
-1.93635 0.672727 0.0
-1.92999 0.72 0.0
-1.93332 0.866667 0.0
-1.92856 0.821429 0.0
-1.94999 1 0.0
-1.92499 0.9625 0.0
-1.92499 0.925 0.0
-1.89998 0.9 0.0
-1.89958 0.125 0.0
-1.92827 0.178571 0.0
-1.89958 0.233333 0.0
-1.89045 0.290909 0.0
-1.86096 0.311538 0.0
-1.89241 0.392857 0.0
-1.89334 0.448489 0.0
-1.85655 0.357143 0.0
-1.89614 0.653846 0.0
-1.89427 0.504121 0.0
-1.8952 0.559753 0.0
-1.89614 0.615385 0.0
-1.84937 0 0.0
-1.83264 0.0333333 0.0
-1.85655 0.107143 0.0
-1.81172 0.075 0.0
-1.89998 0.766667 0.0
-1.89089 0.709091 0.0
-1.87498 0.85 0.0
-1.85998 0.79 0.0
-1.88748 0.8125 0.0
-1.89998 1 0.0
-1.88748 0.9625 0.0
-1.86664 0.933333 0.0
-1.85712 0.892857 0.0
-1.87448 0.15 0.0
-1.86611 0.194444 0.0
-1.83264 0.133333 0.0
-1.83264 0.2625 0.0
-1.82068 0.321429 0.0
-1.85664 0.404762 0.0
-1.85674 0.452381 0.0
-1.85683 0.5 0.0
-1.81184 0.375 0.0
-1.85712 0.642857 0.0
-1.85693 0.547619 0.0
-1.85702 0.595238 0.0
-1.79917 0 0.0
-1.78482 0.0357143 0.0
-1.79917 0.116667 0.0
-1.76569 0.0666666 0.0
-1.85452 0.745455 0.0
-1.82689 0.692308 0.0
-1.81815 0.781818 0.0
-1.82497 0.825 0.0
-1.84997 1 0.0
-1.8333 0.958333 0.0
-1.81247 0.8875 0.0
-1.81247 0.925 0.0
-1.81742 0.218182 0.0
-1.82427 0.175 0.0
-1.77634 0.145455 0.0
-1.79144 0.242308 0.0
-1.78482 0.285714 0.0
-1.77469 0.332653 0.0
-1.81215 0.529762 0.0
-1.81194 0.422619 0.0
-1.81203 0.470238 0.0
-1.76714 0.392857 0.0
-1.81234 0.625 0.0
-1.79732 0.571429 0.0
-1.74896 0 0.0
-1.73222 0.0333333 0.0
-1.75398 0.105 0.0
-1.71883 0.07 0.0
-1.79227 0.730769 0.0
-1.78007 0.679121 0.0
-1.75765 0.769231 0.0
-1.78178 0.818182 0.0
-1.78996 0.86 0.0
-1.79996 1 0.0
-1.78568 0.964286 0.0
-1.76663 0.922222 0.0
-1.76569 0.1875 0.0
-1.73222 0.15 0.0
-1.74896 0.25 0.0
-1.73714 0.304762 0.0
-1.76743 0.537202 0.0
-1.72869 0.343878 0.0
-1.76732 0.485119 0.0
-1.76723 0.440476 0.0
-1.72243 0.410714 0.0
-1.76757 0.607143 0.0
-1.69875 0 0.0
-1.68369 0.035 0.0
-1.69875 0.1125 0.0
-1.66528 0.075 0.0
-1.74341 0.708974 0.0
-1.73324 0.665934 0.0
-1.70441 0.74478 0.0
-1.71423 0.785714 0.0
-1.72303 0.826923 0.0
-1.74541 0.854545 0.0
-1.74541 0.890909 0.0
-1.74996 1 0.0
-1.73745 0.9625 0.0
-1.71359 0.927273 0.0
-1.68716 0.153846 0.0
-1.7131 0.214286 0.0
-1.70725 0.275 0.0
-1.69712 0.321939 0.0
-1.72279 0.589286 0.0
-1.72261 0.5 0.0
-1.7227 0.544643 0.0
-1.6827 0.355102 0.0
-1.67773 0.428571 0.0
-1.70763 0.464286 0.0
-1.70369 0.62449 0.0
-1.64854 0 0.0
-1.63181 0.0375 0.0
-1.64137 0.142857 0.0
-1.61764 0.0769231 0.0
-1.69458 0.703846 0.0
-1.67471 0.657437 0.0
-1.66143 0.727637 0.0
-1.67125 0.768571 0.0
-1.67851 0.821429 0.0
-1.68841 0.861538 0.0
-1.70904 0.890909 0.0
-1.69995 1 0.0
-1.68176 0.963636 0.0
-1.67267 0.927273 0.0
-1.65427 0.187143 0.0
-1.66718 0.231429 0.0
-1.66554 0.3 0.0
-1.67802 0.571429 0.0
-1.67792 0.523809 0.0
-1.6367 0.366327 0.0
-1.63682 0.423469 0.0
-1.62568 0.502976 0.0
-1.6629 0.470238 0.0
-1.65254 0.618367 0.0
-1.6059 0.307143 0.0
-1.59833 0 0.0
-1.58288 0.0384615 0.0
-1.60563 0.169643 0.0
-1.58179 0.112271 0.0
-1.56964 0.0714286 0.0
-1.64574 0.690385 0.0
-1.62827 0.751429 0.0
-1.63371 0.791071 0.0
-1.64279 0.857143 0.0
-1.65378 0.896154 0.0
-1.64994 1 0.0
-1.6363 0.963636 0.0
-1.61916 0.930769 0.0
-1.61345 0.209107 0.0
-1.62126 0.248571 0.0
-1.56989 0.196429 0.0
-1.63324 0.553571 0.0
-1.58846 0.535714 0.0
-1.59408 0.361905 0.0
-1.59161 0.402211 0.0
-1.58832 0.464286 0.0
-1.61504 0.598581 0.0
-1.59683 0.64359 0.0
-1.57899 0.274107 0.0
-1.56176 0.322381 0.0
-1.54812 0 0.0
-1.53378 0.0357143 0.0
-1.54593 0.147619 0.0
-1.53385 0.0732143 0.0
-1.53393 0.110714 0.0
-1.58522 0.704286 0.0
-1.58709 0.745 0.0
-1.58896 0.785714 0.0
-1.60695 0.830357 0.0
-1.60707 0.892857 0.0
-1.59993 1 0.0
-1.58454 0.965385 0.0
-1.57135 0.928571 0.0
-1.55209 0.241071 0.0
-1.5291 0.198214 0.0
-1.56936 0.570918 0.0
-1.54369 0.517857 0.0
-1.5464 0.380952 0.0
-1.54564 0.427721 0.0
-1.54488 0.47449 0.0
-1.55026 0.606122 0.0
-1.54222 0.677143 0.0
-1.52943 0.282857 0.0
-1.52143 0.33619 0.0
-1.49792 0 0.0
-1.49802 0.05 0.0
-1.49822 0.15 0.0
-1.49312 0.1 0.0
-1.5423 0.717143 0.0
-1.54419 0.767857 0.0
-1.54727 0.819048 0.0
-1.57122 0.861905 0.0
-1.53553 0.914286 0.0
-1.54992 1 0.0
-1.53563 0.964286 0.0
-1.49842 0.25 0.0
-1.48831 0.2 0.0
-1.5214 0.558929 0.0
-1.49891 0.5 0.0
-1.49871 0.4 0.0
-1.47631 0.45 0.0
-1.49911 0.6 0.0
-1.49921 0.65 0.0
-1.49931 0.7 0.0
-1.48111 0.35 0.0
-1.48351 0.3 0.0
-1.44771 0 0.0
-1.44782 0.05 0.0
-1.44804 0.15 0.0
-1.44793 0.1 0.0
-1.49941 0.75 0.0
-1.49951 0.8 0.0
-1.49981 0.95 0.0
-1.49961 0.85 0.0
-1.49971 0.9 0.0
-1.49991 1 0.0
-1.44826 0.25 0.0
-1.43815 0.2 0.0
-1.47151 0.55 0.0
-1.44881 0.5 0.0
-1.44859 0.4 0.0
-1.42619 0.45 0.0
-1.44913 0.65 0.0
-1.44902 0.6 0.0
-1.44935 0.75 0.0
-1.44924 0.7 0.0
-1.43972 0.35 0.0
-1.43336 0.3 0.0
-1.3975 0 0.0
-1.39762 0.05 0.0
-1.39786 0.15 0.0
-1.39274 0.1 0.0
-1.44957 0.85 0.0
-1.44946 0.8 0.0
-1.4523 0.95 0.0
-1.44968 0.9 0.0
-1.4499 1 0.0
-1.3981 0.25 0.0
-1.38798 0.2 0.0
-1.42141 0.55 0.0
-1.3987 0.5 0.0
-1.39834 0.35 0.0
-1.37845 0.4 0.0
-1.37607 0.45 0.0
-1.40784 0.65 0.0
-1.39894 0.6 0.0
-1.41185 0.75 0.0
-1.39918 0.7 0.0
-1.38322 0.3 0.0
-1.34729 0 0.0
-1.34492 0.05 0.0
-1.34018 0.15 0.0
-1.34255 0.1 0.0
-1.40707 0.85 0.0
-1.39941 0.8 0.0
-1.39977 0.95 0.0
-1.39965 0.9 0.0
-1.39989 1 0.0
-1.33781 0.2 0.0
-1.33544 0.25 0.0
-1.37131 0.55 0.0
-1.34859 0.5 0.0
-1.33833 0.4 0.0
-1.3307 0.35 0.0
-1.32595 0.45 0.0
-1.34885 0.6 0.0
-1.36655 0.65 0.0
-1.36179 0.75 0.0
-1.34911 0.7 0.0
-1.33307 0.3 0.0
-1.29708 0 0.0
-1.29722 0.05 0.0
-1.2975 0.15 0.0
-1.29236 0.1 0.0
-1.35703 0.85 0.0
-1.34937 0.8 0.0
-1.34988 1 0.0
-1.34962 0.9 0.0
-1.35226 0.95 0.0
-1.28528 0.25 0.0
-1.28764 0.2 0.0
-1.28931 0.35 0.0
-1.32121 0.55 0.0
-1.29848 0.5 0.0
-1.28709 0.45 0.0
-1.2982 0.4 0.0
-1.29876 0.6 0.0
-1.31647 0.65 0.0
-1.29918 0.75 0.0
-1.29904 0.7 0.0
-1.28292 0.3 0.0
-1.24687 0 0.0
-1.24702 0.05 0.0
-1.24717 0.1 0.0
-1.24732 0.15 0.0
-1.29946 0.85 0.0
-1.29932 0.8 0.0
-1.29987 1 0.0
-1.29974 0.95 0.0
-1.30462 0.9 0.0
-1.24762 0.25 0.0
-1.23747 0.2 0.0
-1.24792 0.35 0.0
-1.22807 0.4 0.0
-1.27111 0.55 0.0
-1.24837 0.5 0.0
-1.24822 0.45 0.0
-1.24867 0.6 0.0
-1.26639 0.65 0.0
-1.26167 0.75 0.0
-1.24897 0.7 0.0
-1.23277 0.3 0.0
-1.19667 0 0.0
-1.19683 0.05 0.0
-1.18964 0.15 0.0
-1.19198 0.1 0.0
-1.25695 0.85 0.0
-1.24927 0.8 0.0
-1.25223 0.95 0.0
-1.24987 1 0.0
-1.24957 0.9 0.0
-1.1873 0.2 0.0
-1.18496 0.25 0.0
-1.18028 0.35 0.0
-1.17794 0.4 0.0
-1.1981 0.45 0.0
-1.19842 0.55 0.0
-1.19826 0.5 0.0
-1.19858 0.6 0.0
-1.19874 0.65 0.0
-1.19906 0.75 0.0
-1.1989 0.7 0.0
-1.18262 0.3 0.0
-1.14646 0 0.0
-1.14663 0.05 0.0
-1.1418 0.1 0.0
-1.13713 0.2 0.0
-1.14697 0.15 0.0
-1.20691 0.85 0.0
-1.20926 0.8 0.0
-1.20221 0.95 0.0
-1.19986 1 0.0
-1.20456 0.9 0.0
-1.13997 0.3 0.0
-1.14731 0.25 0.0
-1.13781 0.4 0.0
-1.13014 0.35 0.0
-1.12548 0.45 0.0
-1.14815 0.5 0.0
-1.15962 0.55 0.0
-1.14849 0.6 0.0
-1.15745 0.65 0.0
-1.16155 0.75 0.0
-1.14917 0.8 0.0
-1.14883 0.7 0.0
-1.09625 0 0.0
-1.09661 0.1 0.0
-1.09393 0.05 0.0
-1.09697 0.2 0.0
-1.08929 0.15 0.0
-1.15687 0.85 0.0
-1.14985 1 0.0
-1.15219 0.95 0.0
-1.14951 0.9 0.0
-1.09733 0.3 0.0
-1.08465 0.25 0.0
-1.09769 0.4 0.0
-1.08 0.35 0.0
-1.08661 0.45 0.0
-1.09804 0.5 0.0
-1.12082 0.55 0.0
-1.10916 0.8 0.0
-1.10629 0.7 0.0
-1.0984 0.6 0.0
-1.11616 0.65 0.0
-1.11149 0.75 0.0
-1.04604 0 0.0
-1.04623 0.05 0.0
-1.04642 0.1 0.0
-1.0468 0.2 0.0
-1.03911 0.15 0.0
-1.09948 0.9 0.0
-1.0993 0.85 0.0
-1.09984 1 0.0
-1.09966 0.95 0.0
-1.04718 0.3 0.0
-1.03449 0.25 0.0
-1.04756 0.4 0.0
-1.02986 0.35 0.0
-1.04775 0.45 0.0
-1.04794 0.5 0.0
-1.04813 0.55 0.0
-1.05911 0.8 0.0
-1.04831 0.6 0.0
-1.06376 0.7 0.0
-1.0485 0.65 0.0
-1.04888 0.75 0.0
-0.995833 0 0.0
-0.991231 0.1 0.0
-0.996033 0.05 0.0
-0.986629 0.2 0.0
-0.98893 0.15 0.0
-1.05447 0.9 0.0
-1.04926 0.85 0.0
-1.04983 1 0.0
-1.04964 0.95 0.0
-0.984328 0.25 0.0
-0.99703 0.3 0.0
-0.997429 0.4 0.0
-0.997628 0.45 0.0
-0.979726 0.35 0.0
-0.997827 0.5 0.0
-0.998027 0.55 0.0
-0.998226 0.6 0.0
-0.961416 0.475 0.0
-1.00907 0.8 0.0
-0.998426 0.65 0.0
-0.998625 0.7 0.0
-1.01138 0.75 0.0
-0.945625 0 0.0
-0.946044 0.1 0.0
-0.943334 0.05 0.0
-0.946463 0.2 0.0
-0.938752 0.15 0.0
-1.00444 0.9 0.0
-1.00675 0.85 0.0
-0.999821 1 0.0
-1.00213 0.95 0.0
-0.93417 0.25 0.0
-0.946881 0.3 0.0
-0.9473 0.4 0.0
-0.929588 0.35 0.0
-0.925005 0.45 0.0
-0.960371 0.525 0.0
-0.959325 0.575 0.0
-0.958279 0.625 0.0
-0.922714 0.5 0.0
-0.959017 0.8 0.0
-0.957233 0.675 0.0
-0.952999 0.7125 0.0
-0.948766 0.75 0.0
-0.895417 0 0.0
-0.895855 0.1 0.0
-0.893136 0.05 0.0
-0.896294 0.2 0.0
-0.888573 0.15 0.0
-0.949184 0.85 0.0
-0.954415 0.9 0.0
-0.949812 1 0.0
-0.949603 0.95 0.0
-0.884011 0.25 0.0
-0.896733 0.3 0.0
-0.874887 0.45 0.0
-0.879449 0.35 0.0
-0.897171 0.4 0.0
-0.920423 0.55 0.0
-0.918132 0.6 0.0
-0.915841 0.65 0.0
-0.872606 0.5 0.0
-0.908968 0.8 0.0
-0.91355 0.7 0.0
-0.898707 0.75 0.0
-0.845208 0 0.0
-0.845438 0.05 0.0
-0.845667 0.1 0.0
-0.845896 0.15 0.0
-0.833853 0.25 0.0
-0.846126 0.2 0.0
-0.899146 0.85 0.0
-0.904386 0.9 0.0
-0.899584 0.95 0.0
-0.899804 1 0.0
-0.838062 0.35 0.0
[...]
POINT_DATA 10839
VECTORS Velocity float
0.21 0 0.0
0.24 0 0.0
0.2275 0 0.0
0.2475 0 0.0
0.25 0 0.0
0.2475 0 0.0
0 0 0.0
0.0475 0 0.0
0.1275 0 0.0
0.09 0 0.0
0.09 0 0.0
0.1275 0 0.0
0.1875 0 0.0
0.16 0 0.0
0.195559 -4.37647e-05 0.0
0.242837 -4.31258e-05 0.0
0.215776 -5.25333e-05 0.0
0.231403 -5.37684e-05 0.0
0.248718 -2.98514e-05 0.0
0.24 0 0.0
0.242836 4.81257e-06 0.0
0.248514 -1.06537e-05 0.0
0 0 0.0
0.0622233 -7.00934e-06 0.0
0.0322306 -3.73122e-06 0.0
0.16 0 0.0
0.1875 0 0.0
0.21 0 0.0
0.2275 0 0.0
0.193596 1.71508e-05 0.0
0.138891 8.35406e-07 0.0
0 0 0.0
0.0475 0 0.0
0.099843 -2.49228e-06 0.0
0.0622211 1.72861e-06 0.0
0.0998474 -1.10137e-05 0.0
0.138893 -1.93428e-05 0.0
0.174389 -6.6343e-05 0.0
0.201612 -0.000104069 0.0
0.235775 -0.000105329 0.0
0.244067 -8.78644e-05 0.0
0.223593 -0.000175034 0.0
0.249726 -4.96207e-05 0.0
0.249017 -2.0259e-05 0.0
0.231402 1.51387e-05 0.0
0.244065 1.2844e-05 0.0
0 0 0.0
0.0360899 1.5469e-05 0.0
0.073605 9.73283e-06 0.0
0.0622067 6.68812e-05 0.0
0.174383 2.08132e-05 0.0
0.220163 3.90135e-05 0.0
0.201607 4.39738e-05 0.0
0.115559 -9.35427e-06 0.0
0.146697 5.46722e-06 0.0
0 0 0.0
0.0360931 -2.98689e-06 0.0
0.0693677 -1.20039e-05 0.0
0.0899969 -4.24619e-05 0.0
0.109404 -2.51334e-06 0.0
0.146705 -4.74365e-05 0.0
0.178934 -0.000128339 0.0
0.206306 -0.000190409 0.0
0.214504 -0.000280393 0.0
0.238489 -0.000172877 0.0
0.247295 -0.000121068 0.0
0.229562 -0.000287376 0.0
0.226317 8.35853e-05 0.0
0.249924 -5.14254e-05 0.0
0.246379 1.18598e-05 0.0
0.236656 5.83635e-05 0.0
0 0 0.0
0.0321309 5.50885e-05 0.0
0.0957211 7.47607e-05 0.0
0.0693242 0.000186506 0.0
0.178918 5.18893e-05 0.0
0.20629 9.43229e-05 0.0
0.127548 -3.55795e-05 0.0
0.165983 6.50854e-05 0.0
0.15239 1.73885e-05 0.0
0 0 0.0
0.0360716 -2.18825e-05 0.0
0.0621743 -8.64969e-05 0.0
0.0956823 -0.000116454 0.0
0.127579 -1.97433e-05 0.0
0.156737 -0.00011873 0.0
0.115723 5.90235e-05 0.0
0.193705 -0.000323799 0.0
0.218125 -0.000428765 0.0
0.240855 -0.000242062 0.0
0.247628 -0.000170089 0.0
0.249883 -8.00863e-05 0.0
0.234278 -0.000424434 0.0
0.229548 0.000140407 0.0
0.247623 1.07853e-05 0.0
0.240843 9.08809e-05 0.0
0 0 0.0
0.0341715 0.000100331 0.0
0.103275 0.000158874 0.0
0.0620289 0.000213218 0.0
0.18981 0.000139606 0.0
0.213026 0.000241895 0.0
0.170744 0.000153112 0.0
0.14455 1.45744e-06 0.0
0 0 0.0
0.0397941 -8.71777e-05 0.0
0.0999398 -0.000209684 0.0
0.0692608 -0.000218251 0.0
0.170804 -0.000275035 0.0
0.144605 -9.84814e-05 0.0
0.124751 8.68959e-06 0.0
0.18385 -0.000453193 0.0
0.20421 -0.000586031 0.0
0.22196 -0.00065684 0.0
0.24889 -1.4917e-05 0.0
0.243839 -0.000328054 0.0
0.248897 -0.000194286 0.0
0.238279 -0.000580544 0.0
0.234252 0.000233119 0.0
0.244666 0.00013563 0.0
0 0 0.0
0.0317455 8.61714e-05 0.0
0.0942493 0.000167787 0.0
0.0649178 9.82672e-05 0.0
0.196863 0.000349126 0.0
0.217872 0.000430315 0.0
0.177856 0.000430046 0.0
0.149121 9.03092e-05 0.0
0.120682 -0.000138991 0.0
0 0 0.0
0.0341183 -0.000110227 0.0
0.0715578 -0.000266963 0.0
0.152871 -0.000305158 0.0
0.128275 -0.000213485 0.0
0.187871 -0.000734707 0.0
0.211965 -0.000937834 0.0
0.248222 5.72746e-05 0.0
0.225472 -0.000959477 0.0
0.24938 -0.000197634 0.0
0.246107 -0.000400852 0.0
0.241538 -0.000739162 0.0
0.238246 0.000333156 0.0
0 0 0.0
0.0332308 8.15908e-06 0.0
0.100496 -0.000263748 0.0
0.0696025 -0.000391534 0.0
0.20641 0.000663666 0.0
0.222307 0.000696924 0.0
0.190465 0.000962406 0.0
0.169013 0.00069125 0.0
0.143872 0.000333598 0.0
0.12484 -1.1591e-05 0.0
0.0974316 -0.000193248 0.0
0 0 0.0
0.0355341 -0.000117413 0.0
0.0671803 -0.000104002 0.0
0.131335 -0.000760835 0.0
0.169142 -0.000870188 0.0
0.199689 -0.00120479 0.0
0.218218 -0.00131274 0.0
0.241498 0.000432037 0.0
0.249339 -0.000146726 0.0
0.24737 0.000164236 0.0
0.228609 -0.00133819 0.0
0.244014 -0.000871347 0.0
0.247993 -0.000439221 0.0
0.234017 0.000757458 0.0
0 0 0.0
0.0359193 -0.000196083 0.0
0.12391 -0.0015744 0.0
0.0721131 -0.00114395 0.0
0.208479 0.00111201 0.0
0.224794 0.0011827 0.0
0.198444 0.00156141 0.0
0.178582 0.00132457 0.0
0.147736 0.000932106 0.0
0.120168 0.000494738 0.0
0.0975744 4.93666e-05 0.0
0 0 0.0
0.0343952 -1.25253e-05 0.0
0.0673586 0.000225832 0.0
0.153482 -0.00161611 0.0
0.178744 -0.00162216 0.0
0.21007 -0.00174278 0.0
0.243978 0.000521643 0.0
0.24839 5.38364e-05 0.0
0.231323 -0.00178285 0.0
0.24286 -0.00120055 0.0
0.248298 -0.000163061 0.0
0.247942 -0.000510188 0.0
0.235089 0.00113721 0.0
0.212567 -0.00275745 0.0
0 0 0.0
0.0377458 -0.000483991 0.0
0.142558 -0.00284255 0.0
0.102088 -0.00296025 0.0
0.0688501 -0.00177067 0.0
0.213519 0.00171021 0.0
0.187357 0.00217659 0.0
0.166357 0.00197755 0.0
0.12369 0.00146357 0.0
0.09379 0.000827318 0.0
0 0 0.0
0.034626 0.000149776 0.0
0.0650926 0.000856608 0.0
0.166724 -0.00276042 0.0
0.187557 -0.00259919 0.0
0.159347 -0.0042435 0.0
0.245645 0.00054498 0.0
0.246459 0.000420188 0.0
0.229727 -0.00246937 0.0
0.238711 -0.00192657 0.0
0.246518 -0.000883545 0.0
0.238805 0.00126742 0.0
0.228149 0.00209055 0.0
0.199159 -0.00361453 0.0
0.217499 -0.00360359 0.0
0 0 0.0
0.0365794 -0.00068879 0.0
0.128408 -0.00504453 0.0
0.0721575 -0.00252386 0.0
0.102457 -0.00440771 0.0
0.207894 0.0029519 0.0
0.190339 0.00319239 0.0
0.169383 0.00328461 0.0
0.142301 0.00264098 0.0
0.0971587 0.00198591 0.0
0 0 0.0
0.0337836 0.000364528 0.0
0.068524 0.00171254 0.0
0.183653 -0.00472256 0.0
0.160295 -0.005984 0.0
0.242527 0.00123986 0.0
0.246391 0.000170988 0.0
0.233592 -0.00297664 0.0
0.241911 -0.00197404 0.0
0.246131 -0.0008879 0.0
0.236256 0.00218988 0.0
0.217153 0.00368037 0.0
0.202347 -0.0050959 0.0
0.221264 -0.00440619 0.0
0 0 0.0
0.0526294 -0.00164399 0.0
0.130868 -0.00715719 0.0
0.0965535 -0.00509711 0.0
0.202236 0.00427488 0.0
0.178724 0.00480231 0.0
0.149632 0.00501074 0.0
0.120982 0.00368904 0.0
0.0824079 0.00312365 0.0
0 0 0.0
0.0362759 0.000650418 0.0
0.187299 -0.00685 0.0
0.161108 -0.00797225 0.0
0.242849 0.00138911 0.0
0.245445 -0.000276382 0.0
0.236302 -0.00339115 0.0
0.242456 -0.00209578 0.0
0.23614 0.00283694 0.0
0.224553 0.00420901 0.0
0.208221 0.00542758 0.0
0.224306 -0.00520967 0.0
0.208174 -0.00645169 0.0
0 0 0.0
0.0560798 -0.00198651 0.0
0.132441 -0.00933448 0.0
0.0998401 -0.00618451 0.0
0.186969 0.0064424 0.0
0.160774 0.00714712 0.0
0.0522003 0.00159261 0.0
0.130408 0.00689681 0.0
0.0956632 0.00481385 0.0
0 0 0.0
0.18629 -0.00932505 0.0
0.160891 -0.0105732 0.0
0.242163 0.001535 0.0
0.243582 -0.000330893 0.0
0.234622 -0.00437353 0.0
0.24038 -0.0026667 0.0
0.223013 0.00566113 0.0
0.234441 0.00376649 0.0
0.18585 0.00889218 0.0
0.206852 0.00737721 0.0
0.222962 -0.00652832 0.0
0.206714 -0.00855099 0.0
0 0 0.0
0.0601356 -0.00222126 0.0
0.134807 -0.0111559 0.0
0.104921 -0.00719114 0.0
0.131906 0.00905744 0.0
0.160442 0.00972517 0.0
0.055375 0.0019401 0.0
0.0992569 0.00604542 0.0
0 0 0.0
0.184994 -0.0119693 0.0
0.161003 -0.013049 0.0
0.240069 0.0020422 0.0
0.241224 -0.000363665 0.0
0.221231 -0.00801206 0.0
0.231384 -0.00609852 0.0
0.237819 -0.00331022 0.0
0.221297 0.00705832 0.0
0.232184 0.00487079 0.0
0.184801 0.0108305 0.0
0.204958 0.00959713 0.0
0.204782 -0.0108905 0.0
0 0 0.0
0.0644891 -0.00238559 0.0
0.138666 -0.0125472 0.0
0.110229 -0.00763587 0.0
0.133708 0.0106094 0.0
0.160323 0.0121798 0.0
0.0593671 0.00216962 0.0
0.103634 0.00693422 0.0
0 0 0.0
0.161709 -0.0150328 0.0
0.183424 -0.0150591 0.0
0.237384 0.00261406 0.0
0.238215 -0.000416885 0.0
0.228928 -0.00719432 0.0
0.217573 -0.0106418 0.0
0.234569 -0.00403238 0.0
0.229315 0.00612509 0.0
0.219219 0.00856855 0.0
0.183423 0.0133429 0.0
0.202667 0.0119143 0.0
0.202467 -0.0132501 0.0
0 0 0.0
0.0684688 -0.00232195 0.0
0.142228 -0.0129463 0.0
0.115956 -0.00758453 0.0
0.13676 0.0119282 0.0
0.160803 0.0142393 0.0
0 0 0.0
0.108806 0.00735578 0.0
0.063273 0.00225451 0.0
0.182469 -0.0169026 0.0
0.163216 -0.0162809 0.0
0.21489 -0.012161 0.0
0.234058 0.00324479 0.0
0.234558 -0.000468817 0.0
0.23159 -0.00460334 0.0
0.226168 -0.00826963 0.0
0.22582 0.00739491 0.0
0.216182 0.0104228 0.0
0.181911 0.0158884 0.0
0.200135 0.0140116 0.0
0.200025 -0.0153033 0.0
0 0 0.0
0.0726773 -0.0020824 0.0
0.121124 -0.00716242 0.0
0.14694 -0.0127173 0.0
0.141277 0.0125407 0.0
0.162012 0.0155568 0.0
0 0 0.0
0.0676407 0.00220577 0.0
0.113737 0.0073667 0.0
0.182143 -0.0176737 0.0
0.165521 -0.0165199 0.0
0.212062 -0.0134086 0.0
0.220443 -0.00988142 0.0
0.230053 0.00384508 0.0
0.230214 -0.000533101 0.0
0.228242 -0.00512808 0.0
0.221782 0.00849617 0.0
0.212751 0.012033 0.0
0.181401 0.016771 0.0
0.197666 0.0154983 0.0
0.197724 -0.0166447 0.0
0 0 0.0
0.0763626 -0.00176555 0.0
0.152957 -0.0115396 0.0
0.127239 -0.00621884 0.0
0.145182 0.0123344 0.0
0.164017 0.0159467 0.0
0.0714066 0.00203339 0.0
0 0 0.0
0.119868 0.00686198 0.0
0.168471 -0.0157975 0.0
0.182372 -0.0176493 0.0
0.207321 -0.0144608 0.0
0.216028 -0.0105153 0.0
0.223499 -0.00561805 0.0
0.223225 0.00446863 0.0
0.225321 -0.000604306 0.0
0.217368 0.00918387 0.0
0.207855 0.0132901 0.0
0.181265 0.0169571 0.0
0.19548 0.0160612 0.0
0.195757 -0.0170116 0.0
0 0 0.0
0.0795863 -0.00145738 0.0
0.132112 -0.0052426 0.0
0.171814 -0.0142616 0.0
0.157218 -0.0102902 0.0
0.1501 0.0114015 0.0
0.166142 0.0155276 0.0
0.0748903 0.00171014 0.0
0 0 0.0
0.124716 0.00613106 0.0
0.194497 -0.0165387 0.0
0.183061 -0.0168716 0.0
0.212492 -0.0105404 0.0
0.20415 -0.0142035 0.0
0.21617 -0.00585526 0.0
0.220103 -0.000689339 0.0
0.219358 0.00454282 0.0
0.212871 0.00928596 0.0
0.205052 0.0132765 0.0
0.181723 0.0162568 0.0
0.16989 0.0138018 0.0
0.19376 0.0155656 0.0
0 0 0.0
0.135927 -0.00425656 0.0
0.0820976 -0.00118913 0.0
0.174651 -0.0126111 0.0
0.162615 -0.00830597 0.0
0.155014 0.00990911 0.0
0 0 0.0
0.0778221 0.00134773 0.0
0.12996 0.0049813 0.0
0.193623 -0.0153762 0.0
0.184556 -0.0145649 0.0
0.209155 -0.0102205 0.0
0.201365 -0.0131411 0.0
0.212478 -0.00569561 0.0
0.214925 -0.000777886 0.0
0.215453 0.00440166 0.0
0.172517 0.0121611 0.0
0.192731 0.0143627 0.0
0.208612 0.00872051 0.0
0.202476 0.012651 0.0
0.182683 0.0145251 0.0
0 0 0.0
0.0838544 -0.000905288 0.0
0.139393 -0.00328058 0.0
0.177959 -0.0103945 0.0
0.166692 -0.00656764 0.0
0.133876 0.00386167 0.0
0.160193 0.00785097 0.0
0 0 0.0
0.0803318 0.000978885 0.0
0.193058 -0.0134019 0.0
0.18614 -0.0122347 0.0
0.205388 -0.00930328 0.0
0.199161 -0.0115369 0.0
0.20892 -0.00538933 0.0
0.210028 -0.00090934 0.0
0.208564 0.00359619 0.0
0.175645 0.00977424 0.0
0.204751 0.00757316 0.0
0.192024 0.0126267 0.0
0.198912 0.0105175 0.0
0.184299 0.0115217 0.0
0 0 0.0
0.142261 -0.00235826 0.0
0.0854465 -0.000621641 0.0
0.181431 -0.00779144 0.0
0.169998 -0.00502102 0.0
0.136755 0.00287525 0.0
0.1641 0.00598882 0.0
0 0 0.0
0.0818289 0.000758949 0.0
0.187664 -0.00986025 0.0
0.19282 -0.0111569 0.0
0.202238 -0.00808152 0.0
0.204959 -0.00483408 0.0
0.197472 -0.0096662 0.0
0.205786 -0.00105101 0.0
0.204616 0.00274554 0.0
0.201524 0.00608395 0.0
0.203077 -0.00282455 0.0
0.178507 0.00739047 0.0
0.196972 0.0084176 0.0
0.191495 0.00942141 0.0
0.185355 0.00955148 0.0
0 0 0.0
0.144077 -0.00178348 0.0
0.0865122 -0.000489493 0.0
0.18346 -0.0063031 0.0
0.172628 -0.00375672 0.0
0.139135 0.00192947 0.0
0.166808 0.00450284 0.0
0 0 0.0
0.0829892 0.000469598 0.0
0.18909 -0.00771273 0.0
0.192877 -0.0089615 0.0
0.199727 -0.006797 0.0
0.196271 -0.00786271 0.0
0.200519 -0.00400506 0.0
0.20278 0.000463233 0.0
0.200902 0.0034935 0.0
0.197687 0.00584812 0.0
0.200837 -0.00134015 0.0
0.180813 0.00519581 0.0
0.193596 0.00714586 0.0
0.190256 0.0071246 0.0
0.1869 0.00640423 0.0
0 0 0.0
0.145569 -0.00133711 0.0
0.087273 -0.000363637 0.0
0.185471 -0.00478885 0.0
0.174651 -0.00282508 0.0
0.169573 0.00278936 0.0
0.140794 0.00115712 0.0
0 0 0.0
0.0838323 0.000220514 0.0
0.19033 -0.00596392 0.0
0.193052 -0.00706084 0.0
0.198311 -0.00353845 0.0
0.195459 -0.00631651 0.0
0.197865 -0.00562243 0.0
0.199841 0.00129358 0.0
0.197698 0.00348044 0.0
0.194732 0.00489899 0.0
0.198446 -0.0015621 0.0
0.182633 0.00336486 0.0
0.191349 0.00532306 0.0
0.18793 0.00424684 0.0
0 0 0.0
0.0877698 -0.000305592 0.0
0.146729 -0.0010516 0.0
0.175979 -0.00227602 0.0
0.19135 -0.00466553 0.0
0.187075 -0.00369219 0.0
0.171238 0.00161026 0.0
0.141835 0.000588448 0.0
0.0840915 0.000105754 0.0
0 0 0.0
0.195021 -0.00531054 0.0
0.193325 -0.00558455 0.0
0.197043 -0.00328704 0.0
0.196522 -0.00470444 0.0
0.193834 0.00303721 0.0
0.19764 0.00039055 0.0
0.19602 0.00200752 0.0
0.196711 -0.00182265 0.0
0.188684 0.00248215 0.0
0.184091 0.00164442 0.0
0.191338 0.00280207 0.0
0 0 0.0
0.0883435 -0.000267493 0.0
0.14767 -0.000905963 0.0
0.177196 -0.00185384 0.0
0.192031 -0.00397588 0.0
0.188572 -0.00289275 0.0
0.172271 0.000725588 0.0
0.142452 0.000124038 0.0
0.0841994 -1.05556e-05 0.0
0 0 0.0
0.172957 6.06507e-05 0.0
0.19474 -0.00455711 0.0
0.193699 -0.00431781 0.0
0.195321 -0.00389537 0.0
0.196068 -0.00313436 0.0
0.193003 0.00102024 0.0
0.194806 0.000747681 0.0
0.19604 -0.000418563 0.0
0.195472 -0.00212023 0.0
0.189224 0.00110315 0.0
0.184911 0.000591598 0.0
0.191342 0.00129168 0.0
0 0 0.0
0.0888305 -0.000249217 0.0
0.148439 -0.000880735 0.0
0.17817 -0.00168614 0.0
0.192763 -0.00339314 0.0
0.189534 -0.00256669 0.0
0.0840365 -9.50595e-05 0.0
0.142664 -0.000180788 0.0
0 0 0.0
0.173162 -0.00035561 0.0
0.194573 -0.0039989 0.0
0.194016 -0.0037909 0.0
0.194833 -0.0036473 0.0
0.195168 -0.00309633 0.0
0.192631 5.41739e-05 0.0
0.193923 -0.000297784 0.0
0.194611 -0.00246901 0.0
0.194476 -0.00143176 0.0
0.18944 0.000291023 0.0
0.185326 -0.00019529 0.0
0.191288 0.000113456 0.0
0 0 0.0
0.0893757 -0.000281244 0.0
0.149109 -0.000943423 0.0
0.179093 -0.00168057 0.0
0.193518 -0.0031107 0.0
0.194321 -0.00359028 0.0
0.190322 -0.00249419 0.0
0.083917 -0.00016625 0.0
0.142571 -0.000402623 0.0
0 0 0.0
0.173217 -0.000729216 0.0
0.194515 -0.00371745 0.0
0.194578 -0.00362612 0.0
0.194563 -0.00321783 0.0
0.194135 -0.002766 0.0
0.192318 -0.000751738 0.0
0.19327 -0.0011725 0.0
0.193772 -0.00205117 0.0
0.185537 -0.000796509 0.0
0.189586 -0.000568382 0.0
0.191176 -0.000806853 0.0
0 0 0.0
0.0899124 -0.000372619 0.0
0.149897 -0.00107152 0.0
0.179886 -0.00184499 0.0
0.193944 -0.00314957 0.0
0.194622 -0.00363763 0.0
0.191041 -0.00260687 0.0
0.083626 -0.000228555 0.0
0.142346 -0.000568687 0.0
0 0 0.0
0.185448 -0.00117346 0.0
0.141925 -0.000691519 0.0
0.172972 -0.0010573 0.0
0.194581 -0.00384103 0.0
0.194412 -0.00372146 0.0
0.194023 -0.0036426 0.0
0.193775 -0.00309038 0.0
0.193353 -0.00251192 0.0
0.191984 -0.00156031 0.0
0.192603 -0.00219483 0.0
0.18953 -0.00137907 0.0
0.191044 -0.00145131 0.0
0.194674 -0.0040753 0.0
0 0 0.0
0.0905708 -0.000436201 0.0
0.180705 -0.00211264 0.0
0.15074 -0.001277 0.0
0.194948 -0.00393095 0.0
0.194577 -0.00345619 0.0
0.191698 -0.00289438 0.0
0.0832879 -0.000260886 0.0
0 0 0.0
0.189423 -0.00178552 0.0
0.185294 -0.00157384 0.0
0.172688 -0.00130447 0.0
0.0827084 -0.000259176 0.0
0.141499 -0.000813567 0.0
0.194309 -0.0040354 0.0
0.193838 -0.00398575 0.0
0.193394 -0.00358766 0.0
0.193168 -0.0040177 0.0
0.193006 -0.00296649 0.0
0.191656 -0.00225636 0.0
0.192203 -0.00284812 0.0
0.190835 -0.00199576 0.0
0.194763 -0.0044412 0.0
0.091277 -0.000533101 0.0
0 0 0.0
0.181382 -0.00241402 0.0
0.15166 -0.00152867 0.0
0.195264 -0.0044113 0.0
0.194968 -0.00379303 0.0
0.192396 -0.00333213 0.0
0 0 0.0
0.189138 -0.00225734 0.0
0.184848 -0.00198967 0.0
0.172213 -0.00148624 0.0
0.0822905 -0.000299555 0.0
0.140876 -0.000926552 0.0
0.194241 -0.00474911 0.0
0.193695 -0.00439406 0.0
0.192954 -0.00448425 0.0
0.192476 -0.00383208 0.0
0.191317 -0.00288047 0.0
0.191836 -0.00348067 0.0
0.190444 -0.00273685 0.0
0.194932 -0.0050671 0.0
0 0 0.0
0.0923011 -0.000637967 0.0
0.182297 -0.0028862 0.0
0.15267 -0.00182665 0.0
0.193091 -0.00391876 0.0
0.195608 -0.00508593 0.0
0.195621 -0.00454406 0.0
0 0 0.0
0 0 0.0
0.188753 -0.00270475 0.0
0.184445 -0.00232971 0.0
0.171695 -0.00170262 0.0
0.14019 -0.00104077 0.0
0.0817449 -0.000352847 0.0
0.194223 -0.00544981 0.0
0.19352 -0.00505014 0.0
0.191531 -0.00398927 0.0
0.192684 -0.00518763 0.0
0.192122 -0.00449973 0.0
0.190937 -0.00348657 0.0
0.190037 -0.00326934 0.0
0.194202 -0.00613334 0.0
0.195065 -0.00587219 0.0
0.0935518 -0.00077838 0.0
0.153933 -0.00220488 0.0
0.183383 -0.00349501 0.0
0.193777 -0.00451496 0.0
0.195963 -0.00593663 0.0
0.19604 -0.00518128 0.0
0 0 0.0
0 0 0.0
0.183922 -0.00258708 0.0
0.18811 -0.00324139 0.0
0.13944 -0.00114441 0.0
0.170869 -0.0019531 0.0
0.0811005 -0.000387259 0.0
0.193285 -0.00619573 0.0
0.192375 -0.00600355 0.0
0.189565 -0.00380523 0.0
0.191197 -0.00451361 0.0
0.19184 -0.00506053 0.0
0.190333 -0.00430848 0.0
0.194173 -0.00689202 0.0
0.195281 -0.00725852 0.0
0.196312 -0.00701631 0.0
0.0950158 -0.00100378 0.0
0.155562 -0.00271343 0.0
0.184776 -0.00443168 0.0
0.19463 -0.00539637 0.0
0.196782 -0.00645187 0.0
0 0 0.0
0 0 0.0
0.18311 -0.00298599 0.0
0.187514 -0.00369668 0.0
0.138528 -0.00127911 0.0
0.170045 -0.00218125 0.0
0.0803911 -0.000418961 0.0
0.191529 -0.00566332 0.0
0.192019 -0.0069118 0.0
0.193037 -0.00719587 0.0
0.188995 -0.00435295 0.0
0.190742 -0.00521974 0.0
0.189796 -0.00496703 0.0
0.186806 -0.00416741 0.0
0.194016 -0.00852414 0.0
0 0 0.0
0.195336 -0.00857479 0.0
0.197429 -0.00774307 0.0
0.196637 -0.00829917 0.0
0.0967781 -0.00124684 0.0
0.186119 -0.00529309 0.0
0.157747 -0.0034973 0.0
0.195818 -0.00684807 0.0
0 0 0.0
0 0 0.0
0 0 0.0
0 0 0.0
0 0 0.0
0.0796777 -0.000450306 0.0
0.169184 -0.00242378 0.0
0.182331 -0.00334058 0.0
0.137687 -0.00138856 0.0
0.191061 -0.00649876 0.0
0.191567 -0.00795005 0.0
0.192743 -0.00833527 0.0
0.189276 -0.00551754 0.0
0.188307 -0.00493203 0.0
0.189953 -0.00630022 0.0
0.187654 -0.00544694 0.0
0.186156 -0.00452642 0.0
0.193763 -0.00995452 0.0
0.195342 -0.0100582 0.0
0 0 0.0
-0.000475209 0.000270663 0.0
0 0 0.0
-0.000770228 0.0084769 0.0
0.19694 -0.0098887 0.0
0.197934 -0.00890369 0.0
0.0991894 -0.0016039 0.0
0.187817 -0.00651809 0.0
0.160186 -0.00444769 0.0
0.196994 -0.00842857 0.0
0 0 0.0
0 0 0.0
0 0 0.0
-0.000639062 0.00625287 0.0
-0.000515108 0.00164737 0.0
-0.00141458 0.00147079 0.0
0 0 0.0
0.0788366 -0.000489114 0.0
0.168275 -0.00262493 0.0
0.1814 -0.00370834 0.0
0.136468 -0.00152889 0.0
0.190507 -0.00743793 0.0
0.190997 -0.00911185 0.0
0.19232 -0.00962444 0.0
0.188679 -0.00611228 0.0
0.189408 -0.00699112 0.0
0.186891 -0.00597574 0.0
0.184953 -0.00515793 0.0
0.1934 -0.0115629 0.0
0.194775 -0.0116633 0.0
0.196199 -0.0115689 0.0
0 0 0.0
-0.00168976 0.00056278 0.0
0 0 0.0
0 0 0.0
-0.00257382 0.0143551 0.0
-0.00262243 0.0112771 0.0
0.197536 -0.0113722 0.0
0.198569 -0.0108019 0.0
0.16282 -0.00556013 0.0
0.102008 -0.00209904 0.0
0.189836 -0.00814322 0.0
0.198179 -0.0104089 0.0
0 0 0.0
-0.0017773 0.0052828 0.0
-0.00220904 0.00813352 0.0
-0.00221227 0.00355554 0.0
-0.00354526 0.00225815 0.0
0 0 0.0
0.0779423 -0.000529443 0.0
0.167138 -0.00287043 0.0
0.18032 -0.00407748 0.0
0.135278 -0.00166015 0.0
0.189822 -0.00846393 0.0
0.190279 -0.0103845 0.0
0.191739 -0.0110802 0.0
0.187538 -0.00715545 0.0
0.188779 -0.00770737 0.0
0.185867 -0.00663867 0.0
0.179206 -0.00447457 0.0
0.18387 -0.00568757 0.0
0.192954 -0.0130064 0.0
0.195021 -0.0131894 0.0
0.19719 -0.013381 0.0
0 0 0.0
-0.00380327 0.000769097 0.0
0 0 0.0
0 0 0.0
0 0 0.0
0 0 0.0
-0.00497804 0.0105106 0.0
-0.000886695 0.0127439 0.0
-0.00273049 0.0170485 0.0
-0.00568743 0.0183185 0.0
-0.0048709 0.0145171 0.0
0 0 0.0
-0.000509312 0.0201153 0.0
0.199226 -0.0138084 0.0
0.199216 -0.0123704 0.0
0 0 0.0
0.106087 -0.00289548 0.0
0.16648 -0.00710947 0.0
0.192617 -0.010853 0.0
0 0 0.0
0 0 0.0
-0.00427546 0.00728776 0.0
-0.00490225 0.00473129 0.0
-0.00624102 0.00256869 0.0
0 0 0.0
0.0769153 -0.00057122 0.0
0.165688 -0.00316122 0.0
0.133941 -0.00178964 0.0
0.178098 -0.00477148 0.0
0.188989 -0.00957996 0.0
0.189612 -0.0114194 0.0
0.190972 -0.0127131 0.0
0.186686 -0.00782516 0.0
0.187858 -0.00866338 0.0
0.184705 -0.00731585 0.0
0.182903 -0.00607699 0.0
0.195896 -0.0148268 0.0
0.192345 -0.0145941 0.0
0.194335 -0.0162741 0.0
0.196982 -0.0167607 0.0
0.199583 -0.0169521 0.0
0 0 0.0
-0.00541276 0.000729079 0.0
-0.000757479 0.0195171 0.0
-0.00299602 0.0280376 0.0
-0.000977856 0.0155438 0.0
-0.0072168 0.0124003 0.0
-0.00928664 0.00920275 0.0
-0.00346334 0.0221096 0.0