# vtk DataFile Version 3.0
Mesh NS-CD Problem
ASCII
DATASET UNSTRUCTURED_GRID
POINTS 10839 float
-2 0.3 0.0
-2 0.4 0.0
-2 0.35 0.0
-2 0.45 0.0
-2 0.5 0.0
-2 0.55 0.0
-2 0 0.0
-2 0.05 0.0
-2 0.85 0.0
-2 0.9 0.0
-2 0.1 0.0
-2 0.15 0.0
-2 0.25 0.0
-2 0.2 0.0
-1.96653 0.266667 0.0
-1.96524 0.415385 0.0
-1.96485 0.315 0.0
-1.96348 0.363636 0.0
-1.96414 0.464286 0.0
-2 0.6 0.0
-1.96538 0.584615 0.0
-1.96538 0.538462 0.0
-1.94979 0 0.0
-1.96653 0.0666666 0.0
-1.93306 0.0333333 0.0
-2 0.8 0.0
-2 0.75 0.0
-2 0.7 0.0
-2 0.65 0.0
-1.96249 0.7375 0.0
-1.96666 0.833333 0.0
-2 1 0.0
-2 0.95 0.0
-1.96249 0.8875 0.0
-1.96666 0.933333 0.0
-1.96234 0.1125 0.0
-1.96653 0.166667 0.0
-1.93724 0.225 0.0
-1.92971 0.28 0.0
-1.93048 0.380769 0.0
-1.93048 0.423077 0.0
-1.89958 0.3375 0.0
-1.9292 0.484203 0.0
-1.92117 0.530907 0.0
-1.96363 0.636364 0.0
-1.93076 0.576923 0.0
-1.89958 0 0.0
-1.88703 0.0375 0.0
-1.90963 0.08 0.0
-1.86611 0.0666666 0.0
-1.93749 0.775 0.0
-1.93635 0.672727 0.0
-1.92999 0.72 0.0
-1.93332 0.866667 0.0
-1.92856 0.821429 0.0
-1.94999 1 0.0
-1.92499 0.9625 0.0
-1.92499 0.925 0.0
-1.89998 0.9 0.0
-1.89958 0.125 0.0
-1.92827 0.178571 0.0
-1.89958 0.233333 0.0
-1.89045 0.290909 0.0
-1.86096 0.311538 0.0
-1.89241 0.392857 0.0
-1.89334 0.448489 0.0
-1.85655 0.357143 0.0
-1.89614 0.653846 0.0
-1.89427 0.504121 0.0
-1.8952 0.559753 0.0
-1.89614 0.615385 0.0
-1.84937 0 0.0
-1.83264 0.0333333 0.0
-1.85655 0.107143 0.0
-1.81172 0.075 0.0
-1.89998 0.766667 0.0
-1.89089 0.709091 0.0
-1.87498 0.85 0.0
-1.85998 0.79 0.0
-1.88748 0.8125 0.0
-1.89998 1 0.0
-1.88748 0.9625 0.0
-1.86664 0.933333 0.0
-1.85712 0.892857 0.0
-1.87448 0.15 0.0
-1.86611 0.194444 0.0
-1.83264 0.133333 0.0
-1.83264 0.2625 0.0
-1.82068 0.321429 0.0
-1.85664 0.404762 0.0
-1.85674 0.452381 0.0
-1.85683 0.5 0.0
-1.81184 0.375 0.0
-1.85712 0.642857 0.0
-1.85693 0.547619 0.0
-1.85702 0.595238 0.0
-1.79917 0 0.0
-1.78482 0.0357143 0.0
-1.79917 0.116667 0.0
-1.76569 0.0666666 0.0
-1.85452 0.745455 0.0
-1.82689 0.692308 0.0
-1.81815 0.781818 0.0
-1.82497 0.825 0.0
-1.84997 1 0.0
-1.8333 0.958333 0.0
-1.81247 0.8875 0.0
-1.81247 0.925 0.0
-1.81742 0.218182 0.0
-1.82427 0.175 0.0
-1.77634 0.145455 0.0
-1.79144 0.242308 0.0
-1.78482 0.285714 0.0
-1.77469 0.332653 0.0
-1.81215 0.529762 0.0
-1.81194 0.422619 0.0
-1.81203 0.470238 0.0
-1.76714 0.392857 0.0
-1.81234 0.625 0.0
-1.79732 0.571429 0.0
-1.74896 0 0.0
-1.73222 0.0333333 0.0
-1.75398 0.105 0.0
-1.71883 0.07 0.0
-1.79227 0.730769 0.0
-1.78007 0.679121 0.0
-1.75765 0.769231 0.0
-1.78178 0.818182 0.0
-1.78996 0.86 0.0
-1.79996 1 0.0
-1.78568 0.964286 0.0
-1.76663 0.922222 0.0
-1.76569 0.1875 0.0
-1.73222 0.15 0.0
-1.74896 0.25 0.0
-1.73714 0.304762 0.0
-1.76743 0.537202 0.0
-1.72869 0.343878 0.0
-1.76732 0.485119 0.0
-1.76723 0.440476 0.0
-1.72243 0.410714 0.0
-1.76757 0.607143 0.0
-1.69875 0 0.0
-1.68369 0.035 0.0
-1.69875 0.1125 0.0
-1.66528 0.075 0.0
-1.74341 0.708974 0.0
-1.73324 0.665934 0.0
-1.70441 0.74478 0.0
-1.71423 0.785714 0.0
-1.72303 0.826923 0.0
-1.74541 0.854545 0.0
-1.74541 0.890909 0.0
-1.74996 1 0.0
-1.73745 0.9625 0.0
-1.71359 0.927273 0.0
-1.68716 0.153846 0.0
-1.7131 0.214286 0.0
-1.70725 0.275 0.0
-1.69712 0.321939 0.0
-1.72279 0.589286 0.0
-1.72261 0.5 0.0
-1.7227 0.544643 0.0
-1.6827 0.355102 0.0
-1.67773 0.428571 0.0
-1.70763 0.464286 0.0
-1.70369 0.62449 0.0
-1.64854 0 0.0
-1.63181 0.0375 0.0
-1.64137 0.142857 0.0
-1.61764 0.0769231 0.0
-1.69458 0.703846 0.0
-1.67471 0.657437 0.0
-1.66143 0.727637 0.0
-1.67125 0.768571 0.0
-1.67851 0.821429 0.0
-1.68841 0.861538 0.0
-1.70904 0.890909 0.0
-1.69995 1 0.0
-1.68176 0.963636 0.0
-1.67267 0.927273 0.0
-1.65427 0.187143 0.0
-1.66718 0.231429 0.0
-1.66554 0.3 0.0
-1.67802 0.571429 0.0
-1.67792 0.523809 0.0
-1.6367 0.366327 0.0
-1.63682 0.423469 0.0
-1.62568 0.502976 0.0
-1.6629 0.470238 0.0
-1.65254 0.618367 0.0
-1.6059 0.307143 0.0
-1.59833 0 0.0
-1.58288 0.0384615 0.0
-1.60563 0.169643 0.0
-1.58179 0.112271 0.0
-1.56964 0.0714286 0.0
-1.64574 0.690385 0.0
-1.62827 0.751429 0.0
-1.63371 0.791071 0.0
-1.64279 0.857143 0.0
-1.65378 0.896154 0.0
-1.64994 1 0.0
-1.6363 0.963636 0.0
-1.61916 0.930769 0.0
-1.61345 0.209107 0.0
-1.62126 0.248571 0.0
-1.56989 0.196429 0.0
-1.63324 0.553571 0.0
-1.58846 0.535714 0.0
-1.59408 0.361905 0.0
-1.59161 0.402211 0.0
-1.58832 0.464286 0.0
-1.61504 0.598581 0.0
-1.59683 0.64359 0.0
-1.57899 0.274107 0.0
-1.56176 0.322381 0.0
-1.54812 0 0.0
-1.53378 0.0357143 0.0
-1.54593 0.147619 0.0
-1.53385 0.0732143 0.0
-1.53393 0.110714 0.0
-1.58522 0.704286 0.0
-1.58709 0.745 0.0
-1.58896 0.785714 0.0
-1.60695 0.830357 0.0
-1.60707 0.892857 0.0
-1.59993 1 0.0
-1.58454 0.965385 0.0
-1.57135 0.928571 0.0
-1.55209 0.241071 0.0
-1.5291 0.198214 0.0
-1.56936 0.570918 0.0
-1.54369 0.517857 0.0
-1.5464 0.380952 0.0
-1.54564 0.427721 0.0
-1.54488 0.47449 0.0
-1.55026 0.606122 0.0
-1.54222 0.677143 0.0
-1.52943 0.282857 0.0
-1.52143 0.33619 0.0
-1.49792 0 0.0
-1.49802 0.05 0.0
-1.49822 0.15 0.0
-1.49312 0.1 0.0
-1.5423 0.717143 0.0
-1.54419 0.767857 0.0
-1.54727 0.819048 0.0
-1.57122 0.861905 0.0
-1.53553 0.914286 0.0
-1.54992 1 0.0
-1.53563 0.964286 0.0
-1.49842 0.25 0.0
-1.48831 0.2 0.0
-1.5214 0.558929 0.0
-1.49891 0.5 0.0
-1.49871 0.4 0.0
-1.47631 0.45 0.0
-1.49911 0.6 0.0
-1.49921 0.65 0.0
-1.49931 0.7 0.0
-1.48111 0.35 0.0
-1.48351 0.3 0.0
-1.44771 0 0.0
-1.44782 0.05 0.0
-1.44804 0.15 0.0
-1.44793 0.1 0.0
-1.49941 0.75 0.0
-1.49951 0.8 0.0
-1.49981 0.95 0.0
-1.49961 0.85 0.0
-1.49971 0.9 0.0
-1.49991 1 0.0
-1.44826 0.25 0.0
-1.43815 0.2 0.0
-1.47151 0.55 0.0
-1.44881 0.5 0.0
-1.44859 0.4 0.0
-1.42619 0.45 0.0
-1.44913 0.65 0.0
-1.44902 0.6 0.0
-1.44935 0.75 0.0
-1.44924 0.7 0.0
-1.43972 0.35 0.0
-1.43336 0.3 0.0
-1.3975 0 0.0
-1.39762 0.05 0.0
-1.39786 0.15 0.0
-1.39274 0.1 0.0
-1.44957 0.85 0.0
-1.44946 0.8 0.0
-1.4523 0.95 0.0
-1.44968 0.9 0.0
-1.4499 1 0.0
-1.3981 0.25 0.0
-1.38798 0.2 0.0
-1.42141 0.55 0.0
-1.3987 0.5 0.0
-1.39834 0.35 0.0
-1.37845 0.4 0.0
-1.37607 0.45 0.0
-1.40784 0.65 0.0
-1.39894 0.6 0.0
-1.41185 0.75 0.0
-1.39918 0.7 0.0
-1.38322 0.3 0.0
-1.34729 0 0.0
-1.34492 0.05 0.0
-1.34018 0.15 0.0
-1.34255 0.1 0.0
-1.40707 0.85 0.0
-1.39941 0.8 0.0
-1.39977 0.95 0.0
-1.39965 0.9 0.0
-1.39989 1 0.0
-1.33781 0.2 0.0
-1.33544 0.25 0.0
-1.37131 0.55 0.0
-1.34859 0.5 0.0
-1.33833 0.4 0.0
-1.3307 0.35 0.0
-1.32595 0.45 0.0
-1.34885 0.6 0.0
-1.36655 0.65 0.0
-1.36179 0.75 0.0
-1.34911 0.7 0.0
-1.33307 0.3 0.0
-1.29708 0 0.0
-1.29722 0.05 0.0
-1.2975 0.15 0.0
-1.29236 0.1 0.0
-1.35703 0.85 0.0
-1.34937 0.8 0.0
-1.34988 1 0.0
-1.34962 0.9 0.0
-1.35226 0.95 0.0
-1.28528 0.25 0.0
-1.28764 0.2 0.0
-1.28931 0.35 0.0
-1.32121 0.55 0.0
-1.29848 0.5 0.0
-1.28709 0.45 0.0
-1.2982 0.4 0.0
-1.29876 0.6 0.0
-1.31647 0.65 0.0
-1.29918 0.75 0.0
-1.29904 0.7 0.0
-1.28292 0.3 0.0
-1.24687 0 0.0
-1.24702 0.05 0.0
-1.24717 0.1 0.0
-1.24732 0.15 0.0
-1.29946 0.85 0.0
-1.29932 0.8 0.0
-1.29987 1 0.0
-1.29974 0.95 0.0
-1.30462 0.9 0.0
-1.24762 0.25 0.0
-1.23747 0.2 0.0
-1.24792 0.35 0.0
-1.22807 0.4 0.0
-1.27111 0.55 0.0
-1.24837 0.5 0.0
-1.24822 0.45 0.0
-1.24867 0.6 0.0
-1.26639 0.65 0.0
-1.26167 0.75 0.0
-1.24897 0.7 0.0
-1.23277 0.3 0.0
-1.19667 0 0.0
-1.19683 0.05 0.0
-1.18964 0.15 0.0
-1.19198 0.1 0.0
-1.25695 0.85 0.0
-1.24927 0.8 0.0
-1.25223 0.95 0.0
-1.24987 1 0.0
-1.24957 0.9 0.0
-1.1873 0.2 0.0
-1.18496 0.25 0.0
-1.18028 0.35 0.0
-1.17794 0.4 0.0
-1.1981 0.45 0.0
-1.19842 0.55 0.0
-1.19826 0.5 0.0
-1.19858 0.6 0.0
-1.19874 0.65 0.0
-1.19906 0.75 0.0
-1.1989 0.7 0.0
-1.18262 0.3 0.0
-1.14646 0 0.0
-1.14663 0.05 0.0
-1.1418 0.1 0.0
-1.13713 0.2 0.0
-1.14697 0.15 0.0
-1.20691 0.85 0.0
-1.20926 0.8 0.0
-1.20221 0.95 0.0
-1.19986 1 0.0
-1.20456 0.9 0.0
-1.13997 0.3 0.0
-1.14731 0.25 0.0
-1.13781 0.4 0.0
-1.13014 0.35 0.0
-1.12548 0.45 0.0
-1.14815 0.5 0.0
-1.15962 0.55 0.0
-1.14849 0.6 0.0
-1.15745 0.65 0.0
-1.16155 0.75 0.0
-1.14917 0.8 0.0
-1.14883 0.7 0.0
-1.09625 0 0.0
-1.09661 0.1 0.0
-1.09393 0.05 0.0
-1.09697 0.2 0.0
-1.08929 0.15 0.0
-1.15687 0.85 0.0
-1.14985 1 0.0
-1.15219 0.95 0.0
-1.14951 0.9 0.0
-1.09733 0.3 0.0
-1.08465 0.25 0.0
-1.09769 0.4 0.0
-1.08 0.35 0.0
-1.08661 0.45 0.0
-1.09804 0.5 0.0
-1.12082 0.55 0.0
-1.10916 0.8 0.0
-1.10629 0.7 0.0
-1.0984 0.6 0.0
-1.11616 0.65 0.0
-1.11149 0.75 0.0
-1.04604 0 0.0
-1.04623 0.05 0.0
-1.04642 0.1 0.0
-1.0468 0.2 0.0
-1.03911 0.15 0.0
-1.09948 0.9 0.0
-1.0993 0.85 0.0
-1.09984 1 0.0
-1.09966 0.95 0.0
-1.04718 0.3 0.0
-1.03449 0.25 0.0
-1.04756 0.4 0.0
-1.02986 0.35 0.0
-1.04775 0.45 0.0
-1.04794 0.5 0.0
-1.04813 0.55 0.0
-1.05911 0.8 0.0
-1.04831 0.6 0.0
-1.06376 0.7 0.0
-1.0485 0.65 0.0
-1.04888 0.75 0.0
-0.995833 0 0.0
-0.991231 0.1 0.0
-0.996033 0.05 0.0
-0.986629 0.2 0.0
-0.98893 0.15 0.0
-1.05447 0.9 0.0
-1.04926 0.85 0.0
-1.04983 1 0.0
-1.04964 0.95 0.0
-0.984328 0.25 0.0
-0.99703 0.3 0.0
-0.997429 0.4 0.0
-0.997628 0.45 0.0
-0.979726 0.35 0.0
-0.997827 0.5 0.0
-0.998027 0.55 0.0
-0.998226 0.6 0.0
-0.961416 0.475 0.0
-1.00907 0.8 0.0
-0.998426 0.65 0.0
-0.998625 0.7 0.0
-1.01138 0.75 0.0
-0.945625 0 0.0
-0.946044 0.1 0.0
-0.943334 0.05 0.0
-0.946463 0.2 0.0
-0.938752 0.15 0.0
-1.00444 0.9 0.0
-1.00675 0.85 0.0
-0.999821 1 0.0
-1.00213 0.95 0.0
-0.93417 0.25 0.0
-0.946881 0.3 0.0
-0.9473 0.4 0.0
-0.929588 0.35 0.0
-0.925005 0.45 0.0
-0.960371 0.525 0.0
-0.959325 0.575 0.0
-0.958279 0.625 0.0
-0.922714 0.5 0.0
-0.959017 0.8 0.0
-0.957233 0.675 0.0
-0.952999 0.7125 0.0
-0.948766 0.75 0.0
-0.895417 0 0.0
-0.895855 0.1 0.0
-0.893136 0.05 0.0
-0.896294 0.2 0.0
-0.888573 0.15 0.0
-0.949184 0.85 0.0
-0.954415 0.9 0.0
-0.949812 1 0.0
-0.949603 0.95 0.0
-0.884011 0.25 0.0
-0.896733 0.3 0.0
-0.874887 0.45 0.0
-0.879449 0.35 0.0
-0.897171 0.4 0.0
-0.920423 0.55 0.0
-0.918132 0.6 0.0
-0.915841 0.65 0.0
-0.872606 0.5 0.0
-0.908968 0.8 0.0
-0.91355 0.7 0.0
-0.898707 0.75 0.0
-0.845208 0 0.0
-0.845438 0.05 0.0
-0.845667 0.1 0.0
-0.845896 0.15 0.0
-0.833853 0.25 0.0
-0.846126 0.2 0.0
-0.899146 0.85 0.0
-0.904386 0.9 0.0
-0.899584 0.95 0.0
-0.899804 1 0.0
-0.838062 0.35 0.0
[...]
POINT_DATA 10839
VECTORS Velocity float
0.21 0 0.0
0.24 0 0.0
0.2275 0 0.0
0.2475 0 0.0
0.25 0 0.0
0.2475 0 0.0
0 0 0.0
0.0475 0 0.0
0.1275 0 0.0
0.09 0 0.0
0.09 0 0.0
0.1275 0 0.0
0.1875 0 0.0
0.16 0 0.0
0.195574 -0.000143379 0.0
0.242824 -0.000121159 0.0
0.215775 -0.00017555 0.0
0.231396 -0.000171764 0.0
0.248697 -5.7875e-05 0.0
0.24 0 0.0
0.242823 9.01995e-05 0.0
0.248494 2.33971e-05 0.0
0 0 0.0
0.0622127 9.26021e-05 0.0
0.0320698 0.000136171 0.0
0.16 0 0.0
0.1875 0 0.0
0.21 0 0.0
0.2275 0 0.0
0.193613 0.000135496 0.0
0.138917 -1.22183e-05 0.0
0 0 0.0
0.0475 0 0.0
0.0998592 -0.000113445 0.0
0.06221 -9.69782e-05 0.0
0.0998697 9.37369e-05 0.0
0.138918 -1.09235e-06 0.0
0.174451 -0.0001949 0.0
0.201646 -0.000364497 0.0
0.235732 -0.000335794 0.0
0.244006 -0.000248806 0.0
0.223564 -0.000616891 0.0
0.249642 -7.4186e-05 0.0
0.248925 6.93085e-05 0.0
0.231391 0.000137742 0.0
0.244006 0.000193409 0.0
0 0 0.0
0.0355013 0.000293073 0.0
0.0735258 0.000501712 0.0
0.0617957 0.000518809 0.0
0.174445 0.000154381 0.0
0.220159 0.000292653 0.0
0.201648 0.000318815 0.0
0.115672 -0.000202564 0.0
0.146829 1.80473e-05 0.0
0 0 0.0
0.0358733 -0.000190955 0.0
0.0692864 -0.000404477 0.0
0.0901214 -0.000557685 0.0
0.109675 0.000392205 0.0
0.146828 -5.52666e-05 0.0
0.179114 -0.000446551 0.0
0.206365 -0.000718436 0.0
0.214504 -0.00107329 0.0
0.23836 -0.000561702 0.0
0.247113 -0.000317997 0.0
0.229389 -0.00103571 0.0
0.226269 0.000574451 0.0
0.249729 -1.36643e-05 0.0
0.246211 0.000257465 0.0
0.236553 0.000459389 0.0
0 0 0.0
0.0311906 0.000123461 0.0
0.0960605 0.000392433 0.0
0.0693315 -0.000477116 0.0
0.179098 0.000373959 0.0
0.206337 0.000635444 0.0
0.128069 -0.000198348 0.0
0.166477 0.000558491 0.0
0.152759 0.000157151 0.0
0 0 0.0
0.0354906 -0.000298414 0.0
0.0617815 -0.000533199 0.0
0.0960408 -0.000417093 0.0
0.128094 0.000151811 0.0
0.157233 -0.000422033 0.0
0.116499 -0.00026183 0.0
0.194009 -0.00139076 0.0
0.218013 -0.00169854 0.0
0.240562 -0.000789865 0.0
0.247263 -0.00045635 0.0
0.249494 -6.54375e-05 0.0
0.233825 -0.00153775 0.0
0.229389 0.00090438 0.0
0.247263 0.000322354 0.0
0.24055 0.00067237 0.0
0 0 0.0
0.0337696 -0.000323497 0.0
0.104007 -0.00133433 0.0
0.063151 -0.0018276 0.0
0.190076 0.000953604 0.0
0.213031 0.00146985 0.0
0.171443 0.00135971 0.0
0.145483 0.00072803 0.0
0 0 0.0
0.0389077 -0.000136625 0.0
0.100597 0.000716443 0.0
0.0692619 0.000414916 0.0
0.171539 -0.00147444 0.0
0.14551 -0.000852115 0.0
0.125698 -0.00280938 0.0
0.184399 -0.00235994 0.0
0.204285 -0.0026161 0.0
0.221522 -0.00264244 0.0
0.248157 0.000293758 0.0
0.2432 -0.00106001 0.0
0.248164 -0.000468702 0.0
0.237292 -0.00208998 0.0
0.233799 0.00138702 0.0
0.243888 0.000957881 0.0
0 0 0.0
0.0333969 -0.000869866 0.0
0.0955502 -0.0038007 0.0
0.0689493 -0.00384717 0.0
0.197159 0.00225697 0.0
0.21757 0.00243843 0.0
0.178457 0.00361088 0.0
0.150099 0.00243859 0.0
0.121603 0.00185177 0.0
0 0 0.0
0.0337219 0.000291414 0.0
0.0727774 0.00227237 0.0
0.153767 -0.00342007 0.0
0.128882 -0.00612473 0.0
0.188178 -0.00411537 0.0
0.211477 -0.00419545 0.0
0.246946 0.000661566 0.0
0.224379 -0.00389866 0.0
0.248074 -0.000392655 0.0
0.244892 -0.00125751 0.0
0.23971 -0.00261567 0.0
0.237267 0.00186391 0.0
0 0 0.0
0.038415 -0.00153278 0.0
0.103433 -0.00802114 0.0
0.0787178 -0.00631371 0.0
0.206158 0.00393388 0.0
0.2214 0.00371731 0.0
0.189966 0.00673578 0.0
0.169003 0.00678388 0.0
0.144258 0.00674497 0.0
0.125632 0.00491485 0.0
0.0989224 0.00447453 0.0
0 0 0.0
0.0371698 0.00102312 0.0
0.0716393 0.00424841 0.0
0.131685 -0.0103326 0.0
0.169114 -0.00690731 0.0
0.199026 -0.00622885 0.0
0.216773 -0.00577986 0.0
0.239678 0.00232522 0.0
0.247222 -0.000106297 0.0
0.245326 0.0011673 0.0
0.226374 -0.00547047 0.0
0.240943 -0.00302776 0.0
0.245591 -0.00127887 0.0
0.232115 0.00382644 0.0
0 0 0.0
0.0462786 -0.00219809 0.0
0.125832 -0.0139986 0.0
0.0867854 -0.00779995 0.0
0.207306 0.00638132 0.0
0.222494 0.00607483 0.0
0.196411 0.00967752 0.0
0.177146 0.0102588 0.0
0.147089 0.0109786 0.0
0.121439 0.0098084 0.0
0.100281 0.00706202 0.0
0 0 0.0
0.0399898 0.0016484 0.0
0.0757715 0.00579056 0.0
0.152161 -0.013418 0.0
0.177164 -0.0108408 0.0
0.207951 -0.00836442 0.0
0.240929 0.0027333 0.0
0.245116 0.000798944 0.0
0.227336 -0.00733039 0.0
0.238381 -0.00433132 0.0
0.243052 5.83591e-06 0.0
0.24419 -0.00148185 0.0
0.231571 0.00552534 0.0
0.207594 -0.0129799 0.0
0 0 0.0
0.0530553 -0.00245633 0.0
0.142403 -0.0177605 0.0
0.11515 -0.0137978 0.0
0.0899357 -0.00729899 0.0
0.210515 0.0092599 0.0
0.184003 0.0139578 0.0
0.163841 0.0148565 0.0
0.125828 0.0138508 0.0
0.100954 0.0100879 0.0
0 0 0.0
0.0443319 0.00203005 0.0
0.0800735 0.00655258 0.0
0.163568 -0.017138 0.0
0.183896 -0.0148519 0.0
0.156791 -0.0208873 0.0
0.240874 0.00287253 0.0
0.239369 0.00249183 0.0
0.223629 -0.0102193 0.0
0.232144 -0.00743272 0.0
0.239451 -0.00289139 0.0
0.233486 0.00605036 0.0
0.222277 0.0101024 0.0
0.192935 -0.0176059 0.0
0.209647 -0.0156392 0.0
0 0 0.0
0.0549631 -0.00207152 0.0
0.136228 -0.0189067 0.0
0.0973871 -0.00743385 0.0
0.121658 -0.0137499 0.0
0.201829 0.0153447 0.0
0.18488 0.0176802 0.0
0.165466 0.0191344 0.0
0.14224 0.0175628 0.0
0.108552 0.0123769 0.0
0 0 0.0
0.0477809 0.00201972 0.0
0.0895709 0.00720311 0.0
0.177277 -0.0215748 0.0
0.158568 -0.0229568 0.0
0.234425 0.0058686 0.0
0.236311 0.00151523 0.0
0.224176 -0.0116213 0.0
0.232168 -0.00720141 0.0
0.236178 -0.00269061 0.0
0.227068 0.00979119 0.0
0.207994 0.0167924 0.0
0.193273 -0.0210808 0.0
0.210482 -0.0173172 0.0
0 0 0.0
0.0782749 -0.0035489 0.0
0.142834 -0.0190568 0.0
0.122929 -0.0112543 0.0
0.193826 0.0197958 0.0
0.172886 0.0221333 0.0
0.150148 0.0214086 0.0
0.128827 0.0172747 0.0
0.106594 0.00939255 0.0
0 0 0.0
0.0545942 0.00207036 0.0
0.179373 -0.0241047 0.0
0.161089 -0.0235968 0.0
0.231174 0.00621089 0.0
0.231765 -0.000248886 0.0
0.222989 -0.0119559 0.0
0.226831 -0.00661882 0.0
0.222881 0.0114573 0.0
0.211953 0.0168149 0.0
0.197002 0.0211965 0.0
0.21033 -0.0180358 0.0
0.196182 -0.0222448 0.0
0 0 0.0
0.0842544 -0.00283128 0.0
0.149497 -0.0173778 0.0
0.130351 -0.00986282 0.0
0.179112 0.0238022 0.0
0.16019 0.0232918 0.0
0.0777783 0.00351527 0.0
0.142195 0.0189466 0.0
0.121359 0.0112981 0.0
0 0 0.0
0.178772 -0.0244264 0.0
0.164348 -0.022327 0.0
0.226135 0.00617119 0.0
0.225305 -0.000277379 0.0
0.217135 -0.0133536 0.0
0.220292 -0.00715307 0.0
0.206858 0.0183932 0.0
0.216982 0.012805 0.0
0.17839 0.0240639 0.0
0.193636 0.022426 0.0
0.20622 -0.0189641 0.0
0.19308 -0.0227856 0.0
0 0 0.0
0.0892604 -0.00210842 0.0
0.156211 -0.0147181 0.0
0.13831 -0.00778221 0.0
0.149048 0.0171618 0.0
0.163132 0.0224343 0.0
0.0834023 0.0028313 0.0
0.129634 0.0097277 0.0
0 0 0.0
0.179221 -0.0225557 0.0
0.168275 -0.019507 0.0
0.219508 0.00658984 0.0
0.218374 -0.000328034 0.0
0.202452 -0.0186503 0.0
0.208744 -0.0131988 0.0
0.21356 -0.00705393 0.0
0.202952 0.0182805 0.0
0.210929 0.0128864 0.0
0.178635 0.0227762 0.0
0.191048 0.0214119 0.0
0.190829 -0.0212823 0.0
0 0 0.0
0.0928987 -0.00163644 0.0
0.163113 -0.0112259 0.0
0.144236 -0.00590193 0.0
0.154607 0.0149228 0.0
0.166933 0.0198245 0.0
0.0884011 0.00212291 0.0
0.136896 0.0078368 0.0
0 0 0.0
0.172247 -0.0159059 0.0
0.18065 -0.0183196 0.0
0.212824 0.00632374 0.0
0.211589 -0.000372913 0.0
0.204543 -0.0121065 0.0
0.197255 -0.0159818 0.0
0.207379 -0.0063828 0.0
0.205346 0.0117477 0.0
0.199512 0.0170132 0.0
0.179514 0.0197189 0.0
0.189324 0.0187271 0.0
0.189372 -0.0183022 0.0
0 0 0.0
0.0952703 -0.00117237 0.0
0.167432 -0.00882739 0.0
0.14881 -0.00425895 0.0
0.16068 0.0118825 0.0
0.170833 0.0162868 0.0
0 0 0.0
0.142862 0.0058943 0.0
0.0918379 0.00155504 0.0
0.182144 -0.014477 0.0
0.175843 -0.0122846 0.0
0.194929 -0.0135921 0.0
0.206698 0.00549001 0.0
0.205536 -0.000427628 0.0
0.203223 -0.0056184 0.0
0.200831 -0.0106039 0.0
0.200587 0.00979941 0.0
0.196023 0.014422 0.0
0.181148 0.0148658 0.0
0.188265 0.0151913 0.0
0.188537 -0.0147484 0.0
0 0 0.0
0.0972656 -0.00075864 0.0
0.151837 -0.00308361 0.0
0.171405 -0.00640799 0.0
0.166554 0.00848824 0.0
0.174449 0.012559 0.0
0 0 0.0
0.0945404 0.00105672 0.0
0.146961 0.00435518 0.0
0.183222 -0.0117758 0.0
0.178869 -0.00910912 0.0
0.193051 -0.0111313 0.0
0.195822 -0.00769522 0.0
0.20153 0.0043503 0.0
0.200562 -0.000508157 0.0
0.199688 -0.00479018 0.0
0.1968 0.00757134 0.0
0.193394 0.0113461 0.0
0.182204 0.0120234 0.0
0.187668 0.0115475 0.0
0.188145 -0.0113251 0.0
0 0 0.0
0.0985719 -0.000460287 0.0
0.175005 -0.00428954 0.0
0.154671 -0.00200656 0.0
0.169975 0.0063518 0.0
0.177467 0.00918061 0.0
0.0961671 0.000701644 0.0
0 0 0.0
0.150711 0.00283641 0.0
0.181217 -0.00657448 0.0
0.184684 -0.00800314 0.0
0.190954 -0.00762348 0.0
0.193377 -0.00587296 0.0
0.196127 -0.00379379 0.0
0.195921 0.00265232 0.0
0.196715 -0.00058726 0.0
0.193928 0.00545532 0.0
0.190888 0.00742439 0.0
0.183601 0.00789959 0.0
0.187338 0.00830879 0.0
0.187952 -0.00839958 0.0
0 0 0.0
0.0995303 -0.000300206 0.0
0.156262 -0.00138582 0.0
0.183004 -0.00468265 0.0
0.176778 -0.0031546 0.0
0.173042 0.00431533 0.0
0.179414 0.00691268 0.0
0.0973165 0.000415209 0.0
0 0 0.0
0.152908 0.00191186 0.0
0.187916 -0.00644251 0.0
0.185472 -0.00628543 0.0
0.191906 -0.00468663 0.0
0.189981 -0.00565188 0.0
0.19257 -0.00271163 0.0
0.193875 -0.000683948 0.0
0.193839 0.00186342 0.0
0.191831 0.00367325 0.0
0.189881 0.00545184 0.0
0.184319 0.00594307 0.0
0.181612 0.00426552 0.0
0.187139 0.0056902 0.0
0 0 0.0
0.157461 -0.000990915 0.0
0.100049 -0.000259449 0.0
0.184164 -0.00357087 0.0
0.178653 -0.00213425 0.0
0.175232 0.00279428 0.0
0 0 0.0
0.0980132 0.000203463 0.0
0.154663 0.00110715 0.0
0.187939 -0.00493855 0.0
0.1864 -0.00421582 0.0
0.190825 -0.00377977 0.0
0.189324 -0.00422167 0.0
0.191336 -0.00231982 0.0
0.191874 -0.000793262 0.0
0.192187 0.00118706 0.0
0.182606 0.00297438 0.0
0.187049 0.00395058 0.0
0.190363 0.00227146 0.0
0.189095 0.00384414 0.0
0.184989 0.00389192 0.0
0 0 0.0
0.100253 -0.00018021 0.0
0.158295 -0.000738071 0.0
0.185189 -0.00261364 0.0
0.179784 -0.00157849 0.0
0.155592 0.000617497 0.0
0.176858 0.00158561 0.0
0 0 0.0
0.0985497 6.24561e-05 0.0
0.18801 -0.00367836 0.0
0.187011 -0.0031439 0.0
0.189869 -0.00295878 0.0
0.188918 -0.00325602 0.0
0.190374 -0.00204859 0.0
0.190458 -0.000931245 0.0
0.190088 0.000208033 0.0
0.183497 0.00176837 0.0
0.189311 0.0011995 0.0
0.186959 0.00260023 0.0
0.188208 0.00190206 0.0
0.185566 0.00208817 0.0
0 0 0.0
0.158993 -0.000591036 0.0
0.100841 -0.000132407 0.0
0.186095 -0.00191287 0.0
0.180612 -0.00125443 0.0
0.156168 0.000298348 0.0
0.177814 0.000864629 0.0
0 0 0.0
0.0984624 5.04837e-05 0.0
0.18747 -0.00246144 0.0
0.188106 -0.0028623 0.0
0.189244 -0.00245236 0.0
0.189515 -0.00184325 0.0
0.188675 -0.00264143 0.0
0.189502 -0.00108653 0.0
0.189188 -0.00030546 0.0
0.188586 0.000392174 0.0
0.189068 -0.00151214 0.0
0.184091 0.000913766 0.0
0.187779 0.000891347 0.0
0.186848 0.00113062 0.0
0.185773 0.00130684 0.0
0 0 0.0
0.159506 -0.000545474 0.0
0.101098 -0.000189369 0.0
0.186577 -0.00165714 0.0
0.18124 -0.00108616 0.0
0.156507 4.71552e-05 0.0
0.178318 0.000424037 0.0
0 0 0.0
0.0985779 -3.76548e-05 0.0
0.187851 -0.00206011 0.0
0.188233 -0.00237094 0.0
0.18883 -0.00217277 0.0
0.188554 -0.00230444 0.0
0.188748 -0.0017921 0.0
0.188861 -0.000924514 0.0
0.188441 -0.000362774 0.0
0.187844 9.47327e-05 0.0
0.188601 -0.00137721 0.0
0.184417 0.000300717 0.0
0.18714 0.000383346 0.0
0.186575 0.000418121 0.0
0.185962 0.000356314 0.0
0 0 0.0
0.159927 -0.000547038 0.0
0.101358 -0.000180444 0.0
0.187063 -0.00149197 0.0
0.181761 -0.00102817 0.0
0.178692 -3.16647e-07 0.0
0.156651 -0.000136871 0.0
0 0 0.0
0.0986729 -0.00011618 0.0
0.18818 -0.00187042 0.0
0.18837 -0.00212185 0.0
0.188427 -0.00188081 0.0
0.188512 -0.00216658 0.0
0.188593 -0.00207602 0.0
0.188285 -0.00094176 0.0
0.187825 -0.00055314 0.0
0.187271 -0.0002615 0.0
0.188222 -0.00160879 0.0
0.184581 -0.000144672 0.0
0.18667 -9.81147e-05 0.0
0.185986 -0.000190258 0.0
0 0 0.0
0.101497 -0.000199935 0.0
0.160387 -0.000582465 0.0
0.1822 -0.00103772 0.0
0.188484 -0.00183725 0.0
0.187471 -0.00145824 0.0
0.178802 -0.000274003 0.0
0.156619 -0.000243285 0.0
0.0983928 -9.0792e-05 0.0
0 0 0.0
0.188526 -0.00217316 0.0
0.188533 -0.00205827 0.0
0.188266 -0.00201399 0.0
0.188451 -0.00212444 0.0
0.187029 -0.000775688 0.0
0.187904 -0.00130449 0.0
0.187493 -0.00101437 0.0
0.187963 -0.00188003 0.0
0.185939 -0.000618814 0.0
0.184579 -0.000550216 0.0
0.186491 -0.000742751 0.0
0 0 0.0
0.101993 -0.000219191 0.0
0.160848 -0.000650386 0.0
0.182616 -0.00109733 0.0
0.188719 -0.00189358 0.0
0.187977 -0.00156813 0.0
0.178739 -0.000487453 0.0
0.156468 -0.000346924 0.0
0.0981654 -0.000125827 0.0
0 0 0.0
0.178712 -0.000674163 0.0
0.188569 -0.00225724 0.0
0.188765 -0.00219007 0.0
0.188372 -0.00237932 0.0
0.188151 -0.00219222 0.0
0.186733 -0.00135536 0.0
0.18723 -0.00142623 0.0
0.187622 -0.00166129 0.0
0.187767 -0.00219744 0.0
0.18583 -0.000978148 0.0
0.184507 -0.000828251 0.0
0.186317 -0.00115409 0.0
0 0 0.0
0.102409 -0.000222267 0.0
0.161379 -0.000757233 0.0
0.183078 -0.00124925 0.0
0.189027 -0.00205938 0.0
0.188385 -0.00175319 0.0
0.0978137 -0.00014522 0.0
0.156308 -0.000438791 0.0
0 0 0.0
0.178448 -0.000812469 0.0
0.188663 -0.00248768 0.0
0.18898 -0.00242214 0.0
0.188376 -0.00267867 0.0
0.188043 -0.00249848 0.0
0.186545 -0.00168719 0.0
0.187001 -0.00182007 0.0
0.187616 -0.00257044 0.0
0.187306 -0.00220097 0.0
0.185681 -0.00121897 0.0
0.184318 -0.00108204 0.0
0.186112 -0.00152484 0.0
0 0 0.0
0.10297 -0.000275378 0.0
0.161861 -0.000909313 0.0
0.183619 -0.00148354 0.0
0.189436 -0.00241056 0.0
0.189215 -0.00276651 0.0
0.188822 -0.00203221 0.0
0.0976666 -0.000187805 0.0
0.155931 -0.000537997 0.0
0 0 0.0
0.178169 -0.000976065 0.0
0.188825 -0.00294495 0.0
0.188397 -0.00299232 0.0
0.187976 -0.00288429 0.0
0.18751 -0.00289334 0.0
0.186352 -0.0020104 0.0
0.186767 -0.0022307 0.0
0.187111 -0.0026149 0.0
0.184106 -0.00132815 0.0
0.185451 -0.00153204 0.0
0.185862 -0.00188552 0.0
0 0 0.0
0.10348 -0.000419323 0.0
0.162621 -0.00110287 0.0
0.184245 -0.00178892 0.0
0.189724 -0.00271119 0.0
0.18947 -0.00319951 0.0
0.189309 -0.00238707 0.0
0.0973498 -0.000253449 0.0
0.155586 -0.000630171 0.0
0 0 0.0
0.183787 -0.00151727 0.0
0.155058 -0.000714533 0.0
0.177664 -0.0011701 0.0
0.188979 -0.00344114 0.0
0.188424 -0.00334899 0.0
0.187896 -0.00358851 0.0
0.187416 -0.00324835 0.0
0.186963 -0.00297274 0.0
0.186094 -0.00241057 0.0
0.186444 -0.00284411 0.0
0.185068 -0.00191563 0.0
0.185619 -0.00220709 0.0
0.18913 -0.00390873 0.0
0 0 0.0
0.104185 -0.000499721 0.0
0.184992 -0.00215723 0.0
0.163454 -0.00137363 0.0
0.189773 -0.00377594 0.0
0.190224 -0.00333292 0.0
0.189825 -0.00285107 0.0
0.0970354 -0.000284444 0.0
0 0 0.0
0.184805 -0.00216552 0.0
0.183418 -0.00176778 0.0
0.17734 -0.00135624 0.0
0.0963506 -0.000247164 0.0
0.154684 -0.000821754 0.0
0.188483 -0.00391726 0.0
0.187852 -0.00405005 0.0
0.187267 -0.00379588 0.0
0.187151 -0.00427192 0.0
0.186796 -0.00336163 0.0
0.185785 -0.00284846 0.0
0.186155 -0.00333906 0.0
0.185324 -0.00252851 0.0
0.189257 -0.00446309 0.0
0.104927 -0.000627035 0.0
0 0 0.0
0.185578 -0.0025327 0.0
0.164349 -0.00167739 0.0
0.19009 -0.00447599 0.0
0.19058 -0.00381348 0.0
0.190453 -0.00342801 0.0
0 0 0.0
0.184371 -0.00249921 0.0
0.182802 -0.00208654 0.0
0.17677 -0.00150699 0.0
0.0959697 -0.000283851 0.0
0.154016 -0.000925545 0.0
0.188544 -0.00490387 0.0
0.187807 -0.00456486 0.0
0.187002 -0.00478988 0.0
0.186454 -0.00418636 0.0
0.185437 -0.00331681 0.0
0.185843 -0.00388719 0.0
0.184805 -0.0030755 0.0
0.189464 -0.00528546 0.0
0 0 0.0
0.106147 -0.000743286 0.0
0.186465 -0.00308951 0.0
0.165412 -0.00202407 0.0
0.191131 -0.00414108 0.0
0.190445 -0.0053417 0.0
0.191224 -0.00476759 0.0
0 0 0.0
0 0 0.0
0.18386 -0.00287551 0.0
0.182309 -0.00238731 0.0
0.17622 -0.00169985 0.0
0.153339 -0.00102871 0.0
0.0954462 -0.000355304 0.0
0.188571 -0.00577331 0.0
0.187702 -0.00535279 0.0
0.185543 -0.00436945 0.0
0.186774 -0.00557626 0.0
0.186139 -0.0048744 0.0
0.185016 -0.00384226 0.0
0.184302 -0.0035354 0.0
0.188569 -0.00659147 0.0
0.189621 -0.00627575 0.0
0.107594 -0.000893401 0.0
0.166667 -0.00245618 0.0
0.187528 -0.0037937 0.0
0.191825 -0.00484056 0.0
0.190829 -0.00637629 0.0
0.191656 -0.00553372 0.0
0 0 0.0
0 0 0.0
0.181725 -0.00263029 0.0
0.183087 -0.00337332 0.0
0.15258 -0.00113818 0.0
0.175336 -0.00194676 0.0
0.0948232 -0.000389585 0.0
0.187498 -0.00668781 0.0
0.18646 -0.00649106 0.0
0.183733 -0.00404262 0.0
0.185192 -0.00489217 0.0
0.185859 -0.00547057 0.0
0.18433 -0.00463293 0.0
0.18854 -0.00748479 0.0
0.189861 -0.00792471 0.0
0.191212 -0.00766232 0.0
0.109172 -0.0011815 0.0
0.168414 -0.00304881 0.0
0.188988 -0.00489039 0.0
0.192722 -0.00587114 0.0
0.192454 -0.00703889 0.0
0 0 0.0
0 0 0.0
0.18082 -0.00302931 0.0
0.18238 -0.0038273 0.0
0.151691 -0.00129138 0.0
0.174523 -0.00218599 0.0
0.094081 -0.000435069 0.0
0.185526 -0.00612261 0.0
0.186065 -0.00751119 0.0
0.187221 -0.00783957 0.0
0.183058 -0.00459128 0.0
0.184685 -0.00562601 0.0
0.183704 -0.00530821 0.0
0.181561 -0.00431159 0.0
0.188342 -0.00938662 0.0
0 0 0.0
0.189902 -0.00947431 0.0
0.193153 -0.0085658 0.0
0.191562 -0.00918169 0.0
0.111237 -0.00149627 0.0
0.190416 -0.00591009 0.0
0.170801 -0.00400852 0.0
0.193974 -0.00759118 0.0
0 0 0.0
0 0 0.0
0 0 0.0
0 0 0.0
0 0 0.0
0.0933226 -0.00047437 0.0
0.173701 -0.00244799 0.0
0.179968 -0.00339856 0.0
0.150872 -0.00141356 0.0
0.184999 -0.00703674 0.0
0.185536 -0.00867847 0.0
0.186871 -0.00914362 0.0
0.183102 -0.00588458 0.0
0.182259 -0.00519102 0.0
0.183782 -0.00678241 0.0
0.181498 -0.00573151 0.0
0.180835 -0.00468705 0.0
0.18801 -0.011044 0.0
0.189868 -0.0112137 0.0
0 0 0.0
-0.000492112 0.000252906 0.0
0 0 0.0
-0.000484327 0.00509665 0.0
0.191875 -0.0110705 0.0
0.193722 -0.00995202 0.0
0.114074 -0.00198 0.0
0.192172 -0.00740207 0.0
0.173445 -0.00523488 0.0
0.195257 -0.00950412 0.0
0 0 0.0
0 0 0.0
0 0 0.0
-0.000359994 0.00384758 0.0
-0.000343269 0.00135932 0.0
-0.00104944 0.00110404 0.0
0 0 0.0
0.0924843 -0.000509197 0.0
0.172743 -0.00266324 0.0
0.17898 -0.00378467 0.0
0.149652 -0.00156673 0.0
0.184354 -0.00807102 0.0
0.184853 -0.00998203 0.0
0.186349 -0.010614 0.0
0.182407 -0.00651758 0.0
0.183144 -0.007531 0.0
0.180624 -0.00629114 0.0
0.179498 -0.00535022 0.0
0.187526 -0.0128988 0.0
0.189136 -0.0130779 0.0
0.190856 -0.0130282 0.0
0 0 0.0
-0.00137978 0.000375892 0.0
0 0 0.0
0 0 0.0
-0.00159898 0.00729353 0.0
-0.00135902 0.00559887 0.0
0.192599 -0.0128619 0.0
0.194401 -0.0122469 0.0
0.176336 -0.00671921 0.0
0.11751 -0.00267257 0.0
0.194287 -0.00944488 0.0
0.196519 -0.01195 0.0
0 0 0.0
-0.000895272 0.00317815 0.0
-0.00106651 0.00433015 0.0
-0.00127811 0.0022376 0.0
-0.00216386 0.00120918 0.0
0 0 0.0
0.0915587 -0.000547849 0.0
0.171594 -0.00291956 0.0
0.177841 -0.00417133 0.0
0.148459 -0.00170001 0.0
0.183547 -0.00920273 0.0
0.183982 -0.0114017 0.0
0.185622 -0.0122658 0.0
0.18108 -0.00763227 0.0
0.182409 -0.00830766 0.0
0.17945 -0.00699109 0.0
0.176646 -0.00458248 0.0
0.178274 -0.00590333 0.0
0.186931 -0.0145571 0.0
0.189358 -0.0148857 0.0
0.19202 -0.0152349 0.0
0 0 0.0
-0.0023975 0.000307733 0.0
0 0 0.0
0 0 0.0
0 0 0.0
0 0 0.0
-0.002113 0.00399415 0.0
-0.000796015 0.00823431 0.0
-0.00194303 0.00894384 0.0
-0.0033333 0.00695929 0.0
-0.00244305 0.00563228 0.0
0 0 0.0
-0.00118057 0.0184793 0.0
0.194998 -0.0159181 0.0
0.197548 -0.0143902 0.0
0 0 0.0
0.122612 -0.00384481 0.0
0.180397 -0.00877626 0.0
0.19718 -0.0129582 0.0
0 0 0.0
0 0 0.0
-0.00191784 0.00323467 0.0
-0.00232169 0.00202943 0.0
-0.00301907 0.000802051 0.0
0 0 0.0
0.0905191 -0.000591579 0.0
0.170126 -0.00321953 0.0
0.147123 -0.00183298 0.0
0.17548 -0.00488968 0.0
0.182555 -0.0104283 0.0
0.183169 -0.0125497 0.0
0.184656 -0.0141019 0.0
0.180091 -0.00834585 0.0
0.181328 -0.00934038 0.0
0.178126 -0.00770207 0.0
0.177218 -0.00630851 0.0
0.190319 -0.0168797 0.0
0.186122 -0.0163671 0.0
0.18835 -0.0184736 0.0
0.191546 -0.019271 0.0
0.195189 -0.0197869 0.0
0 0 0.0
-0.0028206 0.000140391 0.0
-0.00132003 0.016149 0.0
-0.00378193 0.0186192 0.0
-0.00104903 0.0107144 0.0
-0.00279403 0.00313776 0.0
-0.00262951 0.000819399 0.0
-0.00303241 0.012086 0.0
-0.0045794 0.00874564 0.0
-0.0044684 0.00404691 0.0