# vtk DataFile Version 3.0
Mesh NS-CD Problem
ASCII
DATASET UNSTRUCTURED_GRID
POINTS 10839 float
-2 0.3 0.0
-2 0.4 0.0
-2 0.35 0.0
-2 0.45 0.0
-2 0.5 0.0
-2 0.55 0.0
-2 0 0.0
-2 0.05 0.0
-2 0.85 0.0
-2 0.9 0.0
-2 0.1 0.0
-2 0.15 0.0
-2 0.25 0.0
-2 0.2 0.0
-1.96653 0.266667 0.0
-1.96524 0.415385 0.0
-1.96485 0.315 0.0
-1.96348 0.363636 0.0
-1.96414 0.464286 0.0
-2 0.6 0.0
-1.96538 0.584615 0.0
-1.96538 0.538462 0.0
-1.94979 0 0.0
-1.96653 0.0666666 0.0
-1.93306 0.0333333 0.0
-2 0.8 0.0
-2 0.75 0.0
-2 0.7 0.0
-2 0.65 0.0
-1.96249 0.7375 0.0
-1.96666 0.833333 0.0
-2 1 0.0
-2 0.95 0.0
-1.96249 0.8875 0.0
-1.96666 0.933333 0.0
-1.96234 0.1125 0.0
-1.96653 0.166667 0.0
-1.93724 0.225 0.0
-1.92971 0.28 0.0
-1.93048 0.380769 0.0
-1.93048 0.423077 0.0
-1.89958 0.3375 0.0
-1.9292 0.484203 0.0
-1.92117 0.530907 0.0
-1.96363 0.636364 0.0
-1.93076 0.576923 0.0
-1.89958 0 0.0
-1.88703 0.0375 0.0
-1.90963 0.08 0.0
-1.86611 0.0666666 0.0
-1.93749 0.775 0.0
-1.93635 0.672727 0.0
-1.92999 0.72 0.0
-1.93332 0.866667 0.0
-1.92856 0.821429 0.0
-1.94999 1 0.0
-1.92499 0.9625 0.0
-1.92499 0.925 0.0
-1.89998 0.9 0.0
-1.89958 0.125 0.0
-1.92827 0.178571 0.0
-1.89958 0.233333 0.0
-1.89045 0.290909 0.0
-1.86096 0.311538 0.0
-1.89241 0.392857 0.0
-1.89334 0.448489 0.0
-1.85655 0.357143 0.0
-1.89614 0.653846 0.0
-1.89427 0.504121 0.0
-1.8952 0.559753 0.0
-1.89614 0.615385 0.0
-1.84937 0 0.0
-1.83264 0.0333333 0.0
-1.85655 0.107143 0.0
-1.81172 0.075 0.0
-1.89998 0.766667 0.0
-1.89089 0.709091 0.0
-1.87498 0.85 0.0
-1.85998 0.79 0.0
-1.88748 0.8125 0.0
-1.89998 1 0.0
-1.88748 0.9625 0.0
-1.86664 0.933333 0.0
-1.85712 0.892857 0.0
-1.87448 0.15 0.0
-1.86611 0.194444 0.0
-1.83264 0.133333 0.0
-1.83264 0.2625 0.0
-1.82068 0.321429 0.0
-1.85664 0.404762 0.0
-1.85674 0.452381 0.0
-1.85683 0.5 0.0
-1.81184 0.375 0.0
-1.85712 0.642857 0.0
-1.85693 0.547619 0.0
-1.85702 0.595238 0.0
-1.79917 0 0.0
-1.78482 0.0357143 0.0
-1.79917 0.116667 0.0
-1.76569 0.0666666 0.0
-1.85452 0.745455 0.0
-1.82689 0.692308 0.0
-1.81815 0.781818 0.0
-1.82497 0.825 0.0
-1.84997 1 0.0
-1.8333 0.958333 0.0
-1.81247 0.8875 0.0
-1.81247 0.925 0.0
-1.81742 0.218182 0.0
-1.82427 0.175 0.0
-1.77634 0.145455 0.0
-1.79144 0.242308 0.0
-1.78482 0.285714 0.0
-1.77469 0.332653 0.0
-1.81215 0.529762 0.0
-1.81194 0.422619 0.0
-1.81203 0.470238 0.0
-1.76714 0.392857 0.0
-1.81234 0.625 0.0
-1.79732 0.571429 0.0
-1.74896 0 0.0
-1.73222 0.0333333 0.0
-1.75398 0.105 0.0
-1.71883 0.07 0.0
-1.79227 0.730769 0.0
-1.78007 0.679121 0.0
-1.75765 0.769231 0.0
-1.78178 0.818182 0.0
-1.78996 0.86 0.0
-1.79996 1 0.0
-1.78568 0.964286 0.0
-1.76663 0.922222 0.0
-1.76569 0.1875 0.0
-1.73222 0.15 0.0
-1.74896 0.25 0.0
-1.73714 0.304762 0.0
-1.76743 0.537202 0.0
-1.72869 0.343878 0.0
-1.76732 0.485119 0.0
-1.76723 0.440476 0.0
-1.72243 0.410714 0.0
-1.76757 0.607143 0.0
-1.69875 0 0.0
-1.68369 0.035 0.0
-1.69875 0.1125 0.0
-1.66528 0.075 0.0
-1.74341 0.708974 0.0
-1.73324 0.665934 0.0
-1.70441 0.74478 0.0
-1.71423 0.785714 0.0
-1.72303 0.826923 0.0
-1.74541 0.854545 0.0
-1.74541 0.890909 0.0
-1.74996 1 0.0
-1.73745 0.9625 0.0
-1.71359 0.927273 0.0
-1.68716 0.153846 0.0
-1.7131 0.214286 0.0
-1.70725 0.275 0.0
-1.69712 0.321939 0.0
-1.72279 0.589286 0.0
-1.72261 0.5 0.0
-1.7227 0.544643 0.0
-1.6827 0.355102 0.0
-1.67773 0.428571 0.0
-1.70763 0.464286 0.0
-1.70369 0.62449 0.0
-1.64854 0 0.0
-1.63181 0.0375 0.0
-1.64137 0.142857 0.0
-1.61764 0.0769231 0.0
-1.69458 0.703846 0.0
-1.67471 0.657437 0.0
-1.66143 0.727637 0.0
-1.67125 0.768571 0.0
-1.67851 0.821429 0.0
-1.68841 0.861538 0.0
-1.70904 0.890909 0.0
-1.69995 1 0.0
-1.68176 0.963636 0.0
-1.67267 0.927273 0.0
-1.65427 0.187143 0.0
-1.66718 0.231429 0.0
-1.66554 0.3 0.0
-1.67802 0.571429 0.0
-1.67792 0.523809 0.0
-1.6367 0.366327 0.0
-1.63682 0.423469 0.0
-1.62568 0.502976 0.0
-1.6629 0.470238 0.0
-1.65254 0.618367 0.0
-1.6059 0.307143 0.0
-1.59833 0 0.0
-1.58288 0.0384615 0.0
-1.60563 0.169643 0.0
-1.58179 0.112271 0.0
-1.56964 0.0714286 0.0
-1.64574 0.690385 0.0
-1.62827 0.751429 0.0
-1.63371 0.791071 0.0
-1.64279 0.857143 0.0
-1.65378 0.896154 0.0
-1.64994 1 0.0
-1.6363 0.963636 0.0
-1.61916 0.930769 0.0
-1.61345 0.209107 0.0
-1.62126 0.248571 0.0
-1.56989 0.196429 0.0
-1.63324 0.553571 0.0
-1.58846 0.535714 0.0
-1.59408 0.361905 0.0
-1.59161 0.402211 0.0
-1.58832 0.464286 0.0
-1.61504 0.598581 0.0
-1.59683 0.64359 0.0
-1.57899 0.274107 0.0
-1.56176 0.322381 0.0
-1.54812 0 0.0
-1.53378 0.0357143 0.0
-1.54593 0.147619 0.0
-1.53385 0.0732143 0.0
-1.53393 0.110714 0.0
-1.58522 0.704286 0.0
-1.58709 0.745 0.0
-1.58896 0.785714 0.0
-1.60695 0.830357 0.0
-1.60707 0.892857 0.0
-1.59993 1 0.0
-1.58454 0.965385 0.0
-1.57135 0.928571 0.0
-1.55209 0.241071 0.0
-1.5291 0.198214 0.0
-1.56936 0.570918 0.0
-1.54369 0.517857 0.0
-1.5464 0.380952 0.0
-1.54564 0.427721 0.0
-1.54488 0.47449 0.0
-1.55026 0.606122 0.0
-1.54222 0.677143 0.0
-1.52943 0.282857 0.0
-1.52143 0.33619 0.0
-1.49792 0 0.0
-1.49802 0.05 0.0
-1.49822 0.15 0.0
-1.49312 0.1 0.0
-1.5423 0.717143 0.0
-1.54419 0.767857 0.0
-1.54727 0.819048 0.0
-1.57122 0.861905 0.0
-1.53553 0.914286 0.0
-1.54992 1 0.0
-1.53563 0.964286 0.0
-1.49842 0.25 0.0
-1.48831 0.2 0.0
-1.5214 0.558929 0.0
-1.49891 0.5 0.0
-1.49871 0.4 0.0
-1.47631 0.45 0.0
-1.49911 0.6 0.0
-1.49921 0.65 0.0
-1.49931 0.7 0.0
-1.48111 0.35 0.0
-1.48351 0.3 0.0
-1.44771 0 0.0
-1.44782 0.05 0.0
-1.44804 0.15 0.0
-1.44793 0.1 0.0
-1.49941 0.75 0.0
-1.49951 0.8 0.0
-1.49981 0.95 0.0
-1.49961 0.85 0.0
-1.49971 0.9 0.0
-1.49991 1 0.0
-1.44826 0.25 0.0
-1.43815 0.2 0.0
-1.47151 0.55 0.0
-1.44881 0.5 0.0
-1.44859 0.4 0.0
-1.42619 0.45 0.0
-1.44913 0.65 0.0
-1.44902 0.6 0.0
-1.44935 0.75 0.0
-1.44924 0.7 0.0
-1.43972 0.35 0.0
-1.43336 0.3 0.0
-1.3975 0 0.0
-1.39762 0.05 0.0
-1.39786 0.15 0.0
-1.39274 0.1 0.0
-1.44957 0.85 0.0
-1.44946 0.8 0.0
-1.4523 0.95 0.0
-1.44968 0.9 0.0
-1.4499 1 0.0
-1.3981 0.25 0.0
-1.38798 0.2 0.0
-1.42141 0.55 0.0
-1.3987 0.5 0.0
-1.39834 0.35 0.0
-1.37845 0.4 0.0
-1.37607 0.45 0.0
-1.40784 0.65 0.0
-1.39894 0.6 0.0
-1.41185 0.75 0.0
-1.39918 0.7 0.0
-1.38322 0.3 0.0
-1.34729 0 0.0
-1.34492 0.05 0.0
-1.34018 0.15 0.0
-1.34255 0.1 0.0
-1.40707 0.85 0.0
-1.39941 0.8 0.0
-1.39977 0.95 0.0
-1.39965 0.9 0.0
-1.39989 1 0.0
-1.33781 0.2 0.0
-1.33544 0.25 0.0
-1.37131 0.55 0.0
-1.34859 0.5 0.0
-1.33833 0.4 0.0
-1.3307 0.35 0.0
-1.32595 0.45 0.0
-1.34885 0.6 0.0
-1.36655 0.65 0.0
-1.36179 0.75 0.0
-1.34911 0.7 0.0
-1.33307 0.3 0.0
-1.29708 0 0.0
-1.29722 0.05 0.0
-1.2975 0.15 0.0
-1.29236 0.1 0.0
-1.35703 0.85 0.0
-1.34937 0.8 0.0
-1.34988 1 0.0
-1.34962 0.9 0.0
-1.35226 0.95 0.0
-1.28528 0.25 0.0
-1.28764 0.2 0.0
-1.28931 0.35 0.0
-1.32121 0.55 0.0
-1.29848 0.5 0.0
-1.28709 0.45 0.0
-1.2982 0.4 0.0
-1.29876 0.6 0.0
-1.31647 0.65 0.0
-1.29918 0.75 0.0
-1.29904 0.7 0.0
-1.28292 0.3 0.0
-1.24687 0 0.0
-1.24702 0.05 0.0
-1.24717 0.1 0.0
-1.24732 0.15 0.0
-1.29946 0.85 0.0
-1.29932 0.8 0.0
-1.29987 1 0.0
-1.29974 0.95 0.0
-1.30462 0.9 0.0
-1.24762 0.25 0.0
-1.23747 0.2 0.0
-1.24792 0.35 0.0
-1.22807 0.4 0.0
-1.27111 0.55 0.0
-1.24837 0.5 0.0
-1.24822 0.45 0.0
-1.24867 0.6 0.0
-1.26639 0.65 0.0
-1.26167 0.75 0.0
-1.24897 0.7 0.0
-1.23277 0.3 0.0
-1.19667 0 0.0
-1.19683 0.05 0.0
-1.18964 0.15 0.0
-1.19198 0.1 0.0
-1.25695 0.85 0.0
-1.24927 0.8 0.0
-1.25223 0.95 0.0
-1.24987 1 0.0
-1.24957 0.9 0.0
-1.1873 0.2 0.0
-1.18496 0.25 0.0
-1.18028 0.35 0.0
-1.17794 0.4 0.0
-1.1981 0.45 0.0
-1.19842 0.55 0.0
-1.19826 0.5 0.0
-1.19858 0.6 0.0
-1.19874 0.65 0.0
-1.19906 0.75 0.0
-1.1989 0.7 0.0
-1.18262 0.3 0.0
-1.14646 0 0.0
-1.14663 0.05 0.0
-1.1418 0.1 0.0
-1.13713 0.2 0.0
-1.14697 0.15 0.0
-1.20691 0.85 0.0
-1.20926 0.8 0.0
-1.20221 0.95 0.0
-1.19986 1 0.0
-1.20456 0.9 0.0
-1.13997 0.3 0.0
-1.14731 0.25 0.0
-1.13781 0.4 0.0
-1.13014 0.35 0.0
-1.12548 0.45 0.0
-1.14815 0.5 0.0
-1.15962 0.55 0.0
-1.14849 0.6 0.0
-1.15745 0.65 0.0
-1.16155 0.75 0.0
-1.14917 0.8 0.0
-1.14883 0.7 0.0
-1.09625 0 0.0
-1.09661 0.1 0.0
-1.09393 0.05 0.0
-1.09697 0.2 0.0
-1.08929 0.15 0.0
-1.15687 0.85 0.0
-1.14985 1 0.0
-1.15219 0.95 0.0
-1.14951 0.9 0.0
-1.09733 0.3 0.0
-1.08465 0.25 0.0
-1.09769 0.4 0.0
-1.08 0.35 0.0
-1.08661 0.45 0.0
-1.09804 0.5 0.0
-1.12082 0.55 0.0
-1.10916 0.8 0.0
-1.10629 0.7 0.0
-1.0984 0.6 0.0
-1.11616 0.65 0.0
-1.11149 0.75 0.0
-1.04604 0 0.0
-1.04623 0.05 0.0
-1.04642 0.1 0.0
-1.0468 0.2 0.0
-1.03911 0.15 0.0
-1.09948 0.9 0.0
-1.0993 0.85 0.0
-1.09984 1 0.0
-1.09966 0.95 0.0
-1.04718 0.3 0.0
-1.03449 0.25 0.0
-1.04756 0.4 0.0
-1.02986 0.35 0.0
-1.04775 0.45 0.0
-1.04794 0.5 0.0
-1.04813 0.55 0.0
-1.05911 0.8 0.0
-1.04831 0.6 0.0
-1.06376 0.7 0.0
-1.0485 0.65 0.0
-1.04888 0.75 0.0
-0.995833 0 0.0
-0.991231 0.1 0.0
-0.996033 0.05 0.0
-0.986629 0.2 0.0
-0.98893 0.15 0.0
-1.05447 0.9 0.0
-1.04926 0.85 0.0
-1.04983 1 0.0
-1.04964 0.95 0.0
-0.984328 0.25 0.0
-0.99703 0.3 0.0
-0.997429 0.4 0.0
-0.997628 0.45 0.0
-0.979726 0.35 0.0
-0.997827 0.5 0.0
-0.998027 0.55 0.0
-0.998226 0.6 0.0
-0.961416 0.475 0.0
-1.00907 0.8 0.0
-0.998426 0.65 0.0
-0.998625 0.7 0.0
-1.01138 0.75 0.0
-0.945625 0 0.0
-0.946044 0.1 0.0
-0.943334 0.05 0.0
-0.946463 0.2 0.0
-0.938752 0.15 0.0
-1.00444 0.9 0.0
-1.00675 0.85 0.0
-0.999821 1 0.0
-1.00213 0.95 0.0
-0.93417 0.25 0.0
-0.946881 0.3 0.0
-0.9473 0.4 0.0
-0.929588 0.35 0.0
-0.925005 0.45 0.0
-0.960371 0.525 0.0
-0.959325 0.575 0.0
-0.958279 0.625 0.0
-0.922714 0.5 0.0
-0.959017 0.8 0.0
-0.957233 0.675 0.0
-0.952999 0.7125 0.0
-0.948766 0.75 0.0
-0.895417 0 0.0
-0.895855 0.1 0.0
-0.893136 0.05 0.0
-0.896294 0.2 0.0
-0.888573 0.15 0.0
-0.949184 0.85 0.0
-0.954415 0.9 0.0
-0.949812 1 0.0
-0.949603 0.95 0.0
-0.884011 0.25 0.0
-0.896733 0.3 0.0
-0.874887 0.45 0.0
-0.879449 0.35 0.0
-0.897171 0.4 0.0
-0.920423 0.55 0.0
-0.918132 0.6 0.0
-0.915841 0.65 0.0
-0.872606 0.5 0.0
-0.908968 0.8 0.0
-0.91355 0.7 0.0
-0.898707 0.75 0.0
-0.845208 0 0.0
-0.845438 0.05 0.0
-0.845667 0.1 0.0
-0.845896 0.15 0.0
-0.833853 0.25 0.0
-0.846126 0.2 0.0
-0.899146 0.85 0.0
-0.904386 0.9 0.0
-0.899584 0.95 0.0
-0.899804 1 0.0
-0.838062 0.35 0.0
[...]
POINT_DATA 10839
VECTORS Velocity float
0.21 0 0.0
0.24 0 0.0
0.2275 0 0.0
0.2475 0 0.0
0.25 0 0.0
0.2475 0 0.0
0 0 0.0
0.0475 0 0.0
0.1275 0 0.0
0.09 0 0.0
0.09 0 0.0
0.1275 0 0.0
0.1875 0 0.0
0.16 0 0.0
0.195557 -2.31036e-05 0.0
0.242841 -3.15678e-05 0.0
0.215776 -2.75205e-05 0.0
0.231406 -3.10403e-05 0.0
0.248725 -3.36173e-05 0.0
0.24 0 0.0
0.24284 -3.14955e-05 0.0
0.24852 -3.2373e-05 0.0
0 0 0.0
0.0622238 -4.0002e-06 0.0
0.0322267 -2.64243e-06 0.0
0.16 0 0.0
0.1875 0 0.0
0.21 0 0.0
0.2275 0 0.0
0.193592 -2.59317e-05 0.0
0.138887 -1.43637e-05 0.0
0 0 0.0
0.0475 0 0.0
0.0998416 -9.95839e-06 0.0
0.0622206 -4.04473e-06 0.0
0.0998461 -1.04078e-05 0.0
0.138891 -1.44945e-05 0.0
0.17438 -3.6408e-05 0.0
0.201605 -4.99333e-05 0.0
0.235787 -6.1038e-05 0.0
0.244085 -6.38854e-05 0.0
0.223602 -8.18532e-05 0.0
0.249751 -6.67587e-05 0.0
0.249044 -7.44029e-05 0.0
0.231404 -3.15449e-05 0.0
0.244081 -6.31236e-05 0.0
0 0 0.0
0.0361074 -5.1213e-06 0.0
0.0736122 -1.43408e-05 0.0
0.062248 -1.57229e-05 0.0
0.17437 -3.58649e-05 0.0
0.220162 -4.99311e-05 0.0
0.201594 -5.00026e-05 0.0
0.115549 -2.14501e-05 0.0
0.146676 -3.32941e-05 0.0
0 0 0.0
0.0360877 -3.44548e-06 0.0
0.0693664 -1.12007e-05 0.0
0.0899841 -2.22756e-05 0.0
0.109391 -3.0173e-05 0.0
0.146691 -3.26563e-05 0.0
0.178902 -6.11299e-05 0.0
0.206293 -8.00361e-05 0.0
0.2145 -0.000107985 0.0
0.238527 -9.57833e-05 0.0
0.24735 -9.9767e-05 0.0
0.229606 -0.000122011 0.0
0.226324 -8.60127e-05 0.0
0.249983 -0.000100265 0.0
0.246426 -9.75312e-05 0.0
0.23668 -9.17944e-05 0.0
0 0 0.0
0.0322493 -5.79531e-06 0.0
0.0956953 -3.42898e-05 0.0
0.0694271 -2.58364e-05 0.0
0.178876 -6.01883e-05 0.0
0.206269 -8.06333e-05 0.0
0.127477 -4.63347e-05 0.0
0.165874 -7.62249e-05 0.0
0.152326 -5.4502e-05 0.0
0 0 0.0
0.0360802 -4.95962e-06 0.0
0.0621969 -1.55534e-05 0.0
0.0956312 -3.4929e-05 0.0
0.127524 -4.67904e-05 0.0
0.15666 -6.80889e-05 0.0
0.115599 -5.37644e-05 0.0
0.193625 -0.000112601 0.0
0.21814 -0.000142669 0.0
0.240939 -0.000130051 0.0
0.247737 -0.000134904 0.0
0.25 -0.000136384 0.0
0.234397 -0.000165302 0.0
0.229577 -0.000120312 0.0
0.247728 -0.000134602 0.0
0.24092 -0.000129815 0.0
0 0 0.0
0.0344851 -8.03832e-06 0.0
0.103119 -5.28556e-05 0.0
0.0622998 -2.61873e-05 0.0
0.189728 -9.55879e-05 0.0
0.21299 -0.000133774 0.0
0.170535 -0.000103563 0.0
0.144331 -7.67639e-05 0.0
0 0 0.0
0.0398995 -8.55534e-06 0.0
0.0997884 -4.79971e-05 0.0
0.0693234 -2.54042e-05 0.0
0.170623 -0.000103704 0.0
0.14442 -7.84334e-05 0.0
0.124374 -7.95967e-05 0.0
0.183648 -0.000131295 0.0
0.20413 -0.000157358 0.0
0.222037 -0.000185458 0.0
0.249109 -0.000179312 0.0
0.244026 -0.000174509 0.0
0.249119 -0.000179323 0.0
0.23855 -0.000210812 0.0
0.234353 -0.000164317 0.0
0.244883 -0.000189093 0.0
0 0 0.0
0.0322888 -8.5211e-06 0.0
0.0940704 -5.56116e-05 0.0
0.0652126 -3.31895e-05 0.0
0.196698 -0.000143624 0.0
0.217873 -0.000176682 0.0
0.17744 -0.000145853 0.0
0.148692 -0.000101541 0.0
0.120332 -7.09537e-05 0.0
0 0 0.0
0.034393 -8.11343e-06 0.0
0.0716476 -3.32696e-05 0.0
0.152422 -0.000114003 0.0
0.12761 -9.9032e-05 0.0
0.187576 -0.000163129 0.0
0.211949 -0.000203461 0.0
0.248606 -0.000222938 0.0
0.225684 -0.00023069 0.0
0.249782 -0.000224567 0.0
0.246473 -0.000220763 0.0
0.242063 -0.000258736 0.0
0.238491 -0.000210206 0.0
0 0 0.0
0.0338699 -1.06963e-05 0.0
0.0999876 -7.44744e-05 0.0
0.0695385 -4.42794e-05 0.0
0.206262 -0.000190387 0.0
0.222406 -0.000222148 0.0
0.189978 -0.000198017 0.0
0.168257 -0.000159711 0.0
0.143007 -0.000122316 0.0
0.124197 -9.00769e-05 0.0
0.097088 -6.03905e-05 0.0
0 0 0.0
0.0360241 -1.035e-05 0.0
0.0673198 -3.56933e-05 0.0
0.130329 -0.000119919 0.0
0.168479 -0.000160525 0.0
0.19947 -0.000209711 0.0
0.218376 -0.000246369 0.0
0.241993 -0.00025936 0.0
0.25 -0.000270801 0.0
0.247989 -0.000267625 0.0
0.229079 -0.000278234 0.0
0.244936 -0.000308639 0.0
0.24874 -0.000284313 0.0
0.234447 -0.00026586 0.0
0 0 0.0
0.0362265 -1.38118e-05 0.0
0.122652 -0.000123022 0.0
0.0712208 -5.2465e-05 0.0
0.208352 -0.000233316 0.0
0.225129 -0.000278047 0.0
0.198052 -0.000242461 0.0
0.17773 -0.000200541 0.0
0.146531 -0.000147614 0.0
0.119137 -0.000102903 0.0
0.0970562 -6.8595e-05 0.0
0 0 0.0
0.0349433 -1.15986e-05 0.0
0.067284 -4.02354e-05 0.0
0.152295 -0.000168062 0.0
0.178013 -0.000205337 0.0
0.210113 -0.000260083 0.0
0.244859 -0.000308554 0.0
0.24942 -0.000317017 0.0
0.232223 -0.000327892 0.0
0.244196 -0.000351643 0.0
0.249989 -0.000375535 0.0
0.249132 -0.000333262 0.0
0.235915 -0.000319014 0.0
0.212959 -0.000318315 0.0
0 0 0.0
0.0371538 -1.62936e-05 0.0
0.141103 -0.000171639 0.0
0.0999479 -0.000103527 0.0
0.0665895 -5.11611e-05 0.0
0.213632 -0.000284451 0.0
0.186612 -0.000247555 0.0
0.16509 -0.000201245 0.0
0.122247 -0.000123637 0.0
0.0928729 -7.53409e-05 0.0
0 0 0.0
0.0349149 -1.29622e-05 0.0
0.0642347 -4.27636e-05 0.0
0.165591 -0.000215312 0.0
0.186962 -0.000253196 0.0
0.158116 -0.000225529 0.0
0.247092 -0.000361191 0.0
0.248692 -0.000415784 0.0
0.231049 -0.000368709 0.0
0.240523 -0.000393604 0.0
0.248756 -0.000415439 0.0
0.240205 -0.000367536 0.0
0.229259 -0.000361251 0.0
0.199176 -0.000311767 0.0
0.218629 -0.000373041 0.0
0 0 0.0
0.0346401 -1.59932e-05 0.0
0.126159 -0.000166964 0.0
0.0681664 -5.78777e-05 0.0
0.098808 -0.000112866 0.0
0.208088 -0.000326 0.0
0.189765 -0.000284028 0.0
0.168133 -0.000235541 0.0
0.140627 -0.000170296 0.0
0.0954175 -8.97641e-05 0.0
0 0 0.0
0.0332602 -1.3275e-05 0.0
0.066066 -5.09726e-05 0.0
0.183216 -0.000294695 0.0
0.159253 -0.00025272 0.0
0.2449 -0.000428897 0.0
0.24966 -0.000471215 0.0
0.235958 -0.00043212 0.0
0.244856 -0.000456824 0.0
0.249377 -0.000470014 0.0
0.238623 -0.000434465 0.0
0.218425 -0.000392598 0.0
0.203098 -0.000364328 0.0
0.223365 -0.000427032 0.0
0 0 0.0
0.0477939 -3.20002e-05 0.0
0.127909 -0.000190621 0.0
0.0904104 -0.000105967 0.0
0.202614 -0.00035082 0.0
0.177974 -0.000288292 0.0
0.147896 -0.000216017 0.0
0.118729 -0.000141295 0.0
0.0780388 -7.53114e-05 0.0
0 0 0.0
0.0342402 -1.56499e-05 0.0
0.187823 -0.000349476 0.0
0.16039 -0.00028151 0.0
0.246453 -0.000490758 0.0
0.25 -0.000529103 0.0
0.240136 -0.000499539 0.0
0.247575 -0.000551081 0.0
0.239863 -0.000499126 0.0
0.227297 -0.000462046 0.0
0.209736 -0.000410884 0.0
0.227718 -0.000485136 0.0
0.210282 -0.000428335 0.0
0 0 0.0
0.0478552 -3.56984e-05 0.0
0.128002 -0.000213041 0.0
0.0904903 -0.000116583 0.0
0.187178 -0.000347592 0.0
0.159628 -0.000272156 0.0
0.04721 -3.13503e-05 0.0
0.127095 -0.000187925 0.0
0.0896022 -0.000103654 0.0
0 0 0.0
0.187898 -0.0003932 0.0
0.160478 -0.000315413 0.0
0.247422 -0.000557425 0.0
0.249999 -0.000596788 0.0
0.240168 -0.000563776 0.0
0.247592 -0.000620148 0.0
0.227251 -0.000520834 0.0
0.239831 -0.000562676 0.0
0.187104 -0.000390947 0.0
0.209674 -0.000462838 0.0
0.227758 -0.000533066 0.0
0.210346 -0.000481977 0.0
0 0 0.0
0.0479226 -3.91703e-05 0.0
0.128106 -0.000237073 0.0
0.0905988 -0.000130823 0.0
0.127002 -0.000210773 0.0
0.159543 -0.000305688 0.0
0.0471528 -3.47668e-05 0.0
0.0895149 -0.000115269 0.0
0 0 0.0
0.187982 -0.000439541 0.0
0.160578 -0.000351923 0.0
0.247405 -0.0006263 0.0
0.249999 -0.000669232 0.0
0.227801 -0.000585221 0.0
0.240218 -0.000660215 0.0
0.24761 -0.000694649 0.0
0.227207 -0.000570727 0.0
0.239795 -0.000630928 0.0
0.187041 -0.000424306 0.0
0.209605 -0.000518287 0.0
0.210418 -0.00053926 0.0
0 0 0.0
0.0480017 -4.35677e-05 0.0
0.12824 -0.000266877 0.0
0.0907095 -0.000144569 0.0
0.126916 -0.000230375 0.0
0.159446 -0.000340666 0.0
0.0470835 -3.86092e-05 0.0
0.0894182 -0.000127288 0.0
0 0 0.0
0.160689 -0.000390665 0.0
0.188102 -0.00050163 0.0
0.247385 -0.000700143 0.0
0.249998 -0.000747008 0.0
0.240252 -0.000721364 0.0
0.227884 -0.000677569 0.0
0.247631 -0.000773683 0.0
0.239754 -0.000703671 0.0
0.22716 -0.000625124 0.0
0.18695 -0.000472355 0.0
0.209527 -0.000577253 0.0
0.210499 -0.000601176 0.0
0 0 0.0
0.0480813 -4.80563e-05 0.0
0.128352 -0.000291106 0.0
0.0908316 -0.000159557 0.0
0.126803 -0.000255058 0.0
0.159338 -0.000378439 0.0
0 0 0.0
0.0893101 -0.000140781 0.0
0.0470135 -4.24135e-05 0.0
0.188211 -0.000558246 0.0
0.160813 -0.000433274 0.0
0.22794 -0.000739138 0.0
0.247363 -0.000780195 0.0
0.249998 -0.000831241 0.0
0.247649 -0.000840309 0.0
0.240288 -0.000785289 0.0
0.239709 -0.000782479 0.0
0.227095 -0.00069559 0.0
0.186819 -0.000537154 0.0
0.209439 -0.000641682 0.0
0.210589 -0.000667333 0.0
0 0 0.0
0.048172 -5.29816e-05 0.0
0.0909528 -0.000173911 0.0
0.128495 -0.00032126 0.0
0.126657 -0.000285755 0.0
0.159217 -0.000418969 0.0
0 0 0.0
0.0469296 -4.66245e-05 0.0
0.0892041 -0.000153207 0.0
0.188302 -0.000602313 0.0
0.160952 -0.000479521 0.0
0.228001 -0.000805234 0.0
0.240359 -0.000907726 0.0
0.247338 -0.000866962 0.0
0.249997 -0.000921973 0.0
0.247669 -0.000910405 0.0
0.239658 -0.000867729 0.0
0.227023 -0.000771999 0.0
0.186732 -0.000579899 0.0
0.209342 -0.000710326 0.0
0.21069 -0.00073976 0.0
0 0 0.0
0.048273 -5.81683e-05 0.0
0.12868 -0.000360584 0.0
0.0911167 -0.000194302 0.0
0.126537 -0.000310543 0.0
0.159083 -0.00046279 0.0
0.0468458 -5.06037e-05 0.0
0 0 0.0
0.0890613 -0.00016991 0.0
0.161106 -0.000529865 0.0
0.188467 -0.00068209 0.0
0.228116 -0.000923084 0.0
0.240417 -0.00100635 0.0
0.247696 -0.00100896 0.0
0.247297 -0.00100356 0.0
0.249996 -0.00102224 0.0
0.239601 -0.000962301 0.0
0.226913 -0.000883617 0.0
0.18657 -0.000655988 0.0
0.209233 -0.000786136 0.0
0.210801 -0.00081802 0.0
0 0 0.0
0.048383 -6.38629e-05 0.0
0.091281 -0.000213208 0.0
0.161275 -0.000583274 0.0
0.128831 -0.000391132 0.0
0.126382 -0.000341724 0.0
0.158964 -0.000500395 0.0
0.0467486 -5.57936e-05 0.0
0 0 0.0
0.0889308 -0.000185095 0.0
0.210905 -0.000890549 0.0
0.18858 -0.000736176 0.0
0.240468 -0.00108954 0.0
0.22821 -0.00102268 0.0
0.247742 -0.00116477 0.0
0.249995 -0.00112996 0.0
0.247272 -0.00108483 0.0
0.239538 -0.00106332 0.0
0.226836 -0.000959138 0.0
0.186461 -0.000706097 0.0
0.158769 -0.000562319 0.0
0.209112 -0.000867238 0.0
0 0 0.0
0.0914457 -0.000233222 0.0
0.0485126 -7.10729e-05 0.0
0.161425 -0.000632198 0.0
0.129056 -0.000438905 0.0
0.126212 -0.000376058 0.0
0 0 0.0
0.0466422 -6.11668e-05 0.0
0.088757 -0.00020504 0.0
0.21102 -0.000967386 0.0
0.188783 -0.00083421 0.0
0.240523 -0.00117896 0.0
0.228316 -0.00113016 0.0
0.247767 -0.00126031 0.0
0.249993 -0.00124864 0.0
0.247245 -0.00117398 0.0
0.158623 -0.000604992 0.0
0.208999 -0.000941948 0.0
0.239467 -0.00117263 0.0
0.226753 -0.00104122 0.0
0.186304 -0.000778537 0.0
0 0 0.0
0.0486403 -7.76004e-05 0.0
0.0916425 -0.000256556 0.0
0.161629 -0.000696341 0.0
0.129275 -0.000484127 0.0
0.0885814 -0.000224238 0.0
0.125994 -0.000418901 0.0
0 0 0.0
0.04652 -6.74081e-05 0.0
0.211167 -0.00106735 0.0
0.188968 -0.000920994 0.0
0.240598 -0.00130118 0.0
0.228432 -0.00124802 0.0
0.247797 -0.00136232 0.0
0.249993 -0.00137937 0.0
0.247188 -0.0013516 0.0
0.158427 -0.000664837 0.0
0.239389 -0.00129439 0.0
0.208876 -0.00102039 0.0
0.226603 -0.00118907 0.0
0.186084 -0.000880387 0.0
0 0 0.0
0.0918842 -0.000285725 0.0
0.0487881 -8.55164e-05 0.0
0.1619 -0.000782055 0.0
0.129515 -0.000533874 0.0
0.0884094 -0.000243663 0.0
0.125782 -0.000460848 0.0
0 0 0.0
0.0463911 -7.39625e-05 0.0
0.189171 -0.00101715 0.0
0.21133 -0.00117803 0.0
0.240682 -0.00143722 0.0
0.247838 -0.00150072 0.0
0.22856 -0.00137668 0.0
0.24999 -0.00151929 0.0
0.247144 -0.00149362 0.0
0.239303 -0.00142514 0.0
0.249554 -0.00162794 0.0
0.158208 -0.000730225 0.0
0.226475 -0.00131123 0.0
0.208665 -0.00115637 0.0
0.185937 -0.000945722 0.0
0 0 0.0
0.0921053 -0.000312584 0.0
0.0489616 -9.54178e-05 0.0
0.162103 -0.000846647 0.0
0.129781 -0.000588758 0.0
0.088201 -0.00026684 0.0
0.125586 -0.000499006 0.0
0 0 0.0
0.0462583 -8.06865e-05 0.0
0.189395 -0.0011219 0.0
0.21151 -0.00129983 0.0
0.24077 -0.00158348 0.0
0.228702 -0.00152016 0.0
0.247903 -0.00173064 0.0
0.249171 -0.00162787 0.0
0.243789 -0.00157985 0.0
0.233418 -0.0014836 0.0
0.249985 -0.00176055 0.0
0.157968 -0.000801759 0.0
0.21806 -0.00134275 0.0
0.203261 -0.00121339 0.0
0.185668 -0.00106342 0.0
0 0 0.0
0.0923704 -0.000344987 0.0
0.0491419 -0.000104823 0.0
0.162376 -0.000934388 0.0
0.130074 -0.0006502 0.0
0.125296 -0.000555031 0.0
0.0879716 -0.000292517 0.0
0 0 0.0
0.0460982 -8.8053e-05 0.0
0.189643 -0.00123816 0.0
0.211708 -0.00143411 0.0
0.247951 -0.00190595 0.0
0.228858 -0.00167658 0.0
0.240873 -0.00174729 0.0
0.247064 -0.00173848 0.0
0.239144 -0.00166389 0.0
0.226234 -0.00153786 0.0
0.249978 -0.00193987 0.0
0.157701 -0.000881319 0.0
0.208346 -0.00136109 0.0
0.185425 -0.00116977 0.0
0 0 0.0
0.0493322 -0.000115148 0.0
0.0926638 -0.000381807 0.0
0.130347 -0.000707106 0.0
0.189915 -0.00136445 0.0
0.162679 -0.00103133 0.0
0.125015 -0.000608633 0.0
0.0877196 -0.000320657 0.0
0.045929 -9.64055e-05 0.0
0 0 0.0
0.228998 -0.00181865 0.0
0.211928 -0.00158401 0.0
0.247995 -0.00205732 0.0
0.240982 -0.00192944 0.0
0.226068 -0.00169169 0.0
0.247001 -0.00191439 0.0
0.239027 -0.00183178 0.0
0.249975 -0.00213717 0.0
0.185161 -0.00128433 0.0
0.157349 -0.000983771 0.0
0.208059 -0.00153972 0.0
0 0 0.0
0.0495532 -0.000128056 0.0
0.0930234 -0.000426597 0.0
0.130698 -0.000780131 0.0
0.190137 -0.00147255 0.0
0.163083 -0.00116594 0.0
0.124708 -0.000666268 0.0
0.0874163 -0.000354169 0.0
0.0457458 -0.000105 0.0
0 0 0.0
0.124367 -0.000731415 0.0
0.22915 -0.00196721 0.0
0.212245 -0.00180492 0.0
0.241154 -0.00221578 0.0
0.248041 -0.00221714 0.0
0.225816 -0.001923 0.0
0.238902 -0.0020146 0.0
0.246936 -0.00210972 0.0
0.249964 -0.00235438 0.0
0.184868 -0.00141049 0.0
0.15702 -0.00108285 0.0
0.207814 -0.00169605 0.0
0 0 0.0
0.0497975 -0.000141678 0.0
0.0933874 -0.000472762 0.0
0.131087 -0.000863402 0.0
0.190462 -0.00162395 0.0
0.163462 -0.00129048 0.0
0.0455416 -0.000115844 0.0
0.0871081 -0.000388856 0.0
0 0 0.0
0.124055 -0.000789256 0.0
0.229351 -0.00217454 0.0
0.21252 -0.00199485 0.0
0.241292 -0.00244385 0.0
0.248101 -0.00244709 0.0
0.225639 -0.00208203 0.0
0.238764 -0.0022158 0.0
0.249956 -0.00259514 0.0
0.246825 -0.00242646 0.0
0.184627 -0.00151065 0.0
0.156658 -0.00118874 0.0
0.207543 -0.00186273 0.0
0 0 0.0
0.0500662 -0.000156595 0.0
0.0937873 -0.000522829 0.0
0.131581 -0.000968791 0.0
0.19091 -0.00183873 0.0
0.21282 -0.00220677 0.0
0.163876 -0.00143009 0.0
0.0453336 -0.000125979 0.0
0.086774 -0.000425438 0.0
0 0 0.0
0.123653 -0.000865071 0.0
0.229651 -0.00248134 0.0
0.24141 -0.00264818 0.0
0.248168 -0.00269982 0.0
0.249945 -0.002794 0.0
0.225454 -0.00224953 0.0
0.238603 -0.00244119 0.0
0.246736 -0.00267173 0.0
0.15626 -0.00130579 0.0
0.184281 -0.0016588 0.0
0.207242 -0.00204581 0.0
0 0 0.0
0.0503844 -0.000175633 0.0
0.0942346 -0.00058203 0.0
0.132065 -0.00107702 0.0
0.191212 -0.00198703 0.0
0.213149 -0.00243743 0.0
0.164335 -0.00158527 0.0
0.0450929 -0.00013734 0.0
0.0864065 -0.000465595 0.0
0 0 0.0
0.155916 -0.00140063 0.0
0.0860055 -0.000507468 0.0
0.123142 -0.000959743 0.0
0.229901 -0.00275393 0.0
0.241535 -0.00285922 0.0
0.248271 -0.00311218 0.0
0.249936 -0.00300247 0.0
0.246661 -0.00288062 0.0
0.225205 -0.00247046 0.0
0.23836 -0.00279087 0.0
0.183796 -0.00186061 0.0
0.206963 -0.00222048 0.0
0.230127 -0.00298593 0.0
0 0 0.0
0.0507206 -0.00019579 0.0
0.132601 -0.0011988 0.0
0.0947299 -0.000649821 0.0
0.213514 -0.00270256 0.0
0.191756 -0.0022574 0.0
0.164841 -0.00175919 0.0
0.0448184 -0.000150127 0.0
0 0 0.0
0.183474 -0.00199804 0.0
0.155444 -0.00153637 0.0
0.122647 -0.00105309 0.0
0.0445267 -0.000164998 0.0
0.085563 -0.000556309 0.0
0.241708 -0.00315992 0.0
0.248331 -0.00336165 0.0
0.249914 -0.00330939 0.0
0.249898 -0.00356373 0.0
0.246574 -0.00310234 0.0
0.224924 -0.00271676 0.0
0.23815 -0.0030714 0.0
0.206658 -0.00239816 0.0
0.23036 -0.00324239 0.0
0.0510793 -0.000219145 0.0
0 0 0.0
0.1331 -0.00131172 0.0
0.0952779 -0.000724463 0.0
0.21391 -0.00299497 0.0
0.192122 -0.00244344 0.0
0.165402 -0.00195702 0.0
0 0 0.0
0.183011 -0.0021855 0.0
0.154818 -0.00171109 0.0
0.122194 -0.00113168 0.0
0.0442294 -0.000179218 0.0
0.0850817 -0.000607642 0.0
0.241966 -0.00363691 0.0
0.248395 -0.00362301 0.0
0.249873 -0.00383083 0.0
0.246398 -0.00355689 0.0
0.224619 -0.00298137 0.0
0.237929 -0.00337718 0.0
0.206142 -0.00270734 0.0
0.23068 -0.0035932 0.0
0 0 0.0
0.0514968 -0.000247127 0.0
0.133745 -0.00146459 0.0
0.0958312 -0.000803708 0.0
0.16602 -0.00217624 0.0
0.214347 -0.00332662 0.0
0.192785 -0.00278333 0.0
0 0 0.0
0 0 0.0
0.182497 -0.00239549 0.0
0.154238 -0.00187584 0.0
0.121612 -0.00123859 0.0
0.0845555 -0.000663166 0.0
0.0438872 -0.000194646 0.0
0.242172 -0.0040216 0.0
0.248473 -0.00400084 0.0
0.237728 -0.00364126 0.0
0.249838 -0.0042187 0.0
0.24625 -0.00391912 0.0
0.224277 -0.0032759 0.0
0.205693 -0.00296652 0.0
0.242341 -0.00436369 0.0
0.231011 -0.00398321 0.0
0.051961 -0.000276099 0.0
0.0965026 -0.000896562 0.0
0.134466 -0.00164298 0.0
0.166564 -0.00238126 0.0
0.214825 -0.00369409 0.0
0.193225 -0.00302791 0.0
0 0 0.0
0 0 0.0
0.153736 -0.00200757 0.0
0.181787 -0.00267474 0.0
0.0840387 -0.000714289 0.0
0.120875 -0.00136885 0.0
0.0435127 -0.000213054 0.0
0.248598 -0.00460297 0.0
0.249785 -0.00465083 0.0
0.205202 -0.00324838 0.0
0.237507 -0.00391868 0.0
0.246125 -0.00422376 0.0
0.223756 -0.00370812 0.0
0.242525 -0.00472022 0.0
0.231521 -0.0045818 0.0
0.215341 -0.00411131 0.0
0.0525167 -0.000313496 0.0
0.0972599 -0.00101339 0.0
0.135392 -0.00188062 0.0
0.167307 -0.00265833 0.0
0.194024 -0.00347508 0.0
0 0 0.0
0 0 0.0
0.15291 -0.00222726 0.0
0.181151 -0.00292801 0.0
0.0833522 -0.000785189 0.0
0.120169 -0.00148939 0.0
0.0430887 -0.000230802 0.0
0.245984 -0.0045484 0.0
0.249722 -0.00511502 0.0
0.248671 -0.00508744 0.0
0.20466 -0.00355138 0.0
0.23721 -0.00430293 0.0
0.22332 -0.00407328 0.0
0.180454 -0.00319648 0.0
0.242849 -0.00543145 0.0
0 0 0.0
0.231909 -0.00510097 0.0
0.194737 -0.00389642 0.0
0.215896 -0.00457687 0.0
0.0530959 -0.000357976 0.0
0.136163 -0.00209359 0.0
0.0982088 -0.00117518 0.0
0.168296 -0.00307178 0.0
0 0 0.0
0 0 0.0
0 0 0.0
0 0 0.0
0 0 0.0
0.0426703 -0.000247695 0.0
0.119393 -0.00162277 0.0
0.152146 -0.00243002 0.0
0.08274 -0.000846644 0.0
0.245776 -0.00498873 0.0
0.249637 -0.00562752 0.0
0.248748 -0.00561799 0.0
0.222922 -0.00437853 0.0
0.204058 -0.00387944 0.0
0.236717 -0.00488813 0.0
0.203503 -0.00417532 0.0
0.179887 -0.00340463 0.0
0.243082 -0.00601903 0.0
0.232329 -0.00566376 0.0
0 0 0.0
7.76838e-05 -3.84238e-05 0.0
0 0 0.0
-0.000128966 0.000281535 0.0
0.216499 -0.00511236 0.0
0.195319 -0.00424791 0.0
0.0538191 -0.000417811 0.0
0.137162 -0.00237813 0.0
0.0991922 -0.00135523 0.0
0.16923 -0.00348263 0.0
0 0 0.0
0 0 0.0
0 0 0.0
-7.74886e-05 -1.86107e-05 0.0
3.48076e-05 -0.000183908 0.0
0.000135529 -0.000148936 0.0
0 0 0.0
0.0421904 -0.000269329 0.0
0.118687 -0.00173787 0.0
0.151313 -0.00264149 0.0
0.0819287 -0.000923558 0.0
0.245544 -0.00547918 0.0
0.249526 -0.0061836 0.0
0.24881 -0.00619338 0.0
0.222493 -0.00470965 0.0
0.236405 -0.00526493 0.0
0.202897 -0.00448036 0.0
0.178856 -0.00377421 0.0
0.243324 -0.00665783 0.0
0.23585 -0.00635848 0.0
0.225508 -0.00593832 0.0
0 0 0.0
0.000197327 -4.79955e-05 0.0
0 0 0.0
0 0 0.0
-0.000503393 0.00106237 0.0
-0.000395188 0.000438152 0.0
0.21228 -0.00543366 0.0
0.196135 -0.00478608 0.0
0.100198 -0.00155404 0.0
0.0545884 -0.000496984 0.0
0.13828 -0.00273326 0.0
0.17024 -0.0039657 0.0
0 0 0.0
-3.3856e-05 -0.00022918 0.0
-0.000195918 -1.36944e-05 0.0
8.22439e-05 -0.000228613 0.0
0.000220072 -0.000114573 0.0
0 0 0.0
0.0416735 -0.00029099 0.0
0.117786 -0.00188094 0.0
0.150407 -0.00285789 0.0
0.0811214 -0.000998528 0.0
0.245267 -0.00600278 0.0
0.24939 -0.00678423 0.0
0.248854 -0.00682115 0.0
0.221703 -0.00529941 0.0
0.236053 -0.00564965 0.0
0.202119 -0.00486963 0.0
0.149415 -0.00309848 0.0
0.177938 -0.00409681 0.0
0.243509 -0.00720662 0.0
0.233047 -0.00675491 0.0
0.217595 -0.00620582 0.0
0 0 0.0
0.000283927 -1.66014e-05 0.0
0 0 0.0
0 0 0.0
0 0 0.0
0 0 0.0
-0.000620889 0.000515885 0.0
-0.000174943 0.00113418 0.0
-0.000577252 0.00166379 0.0
-0.00127989 0.00234524 0.0
-0.000932241 0.00128787 0.0
0 0 0.0
-0.000112187 0.0026408 0.0
0.197224 -0.00560003 0.0
0.171111 -0.00443782 0.0
0 0 0.0
0.0555885 -0.000614316 0.0
0.101467 -0.00184094 0.0
0.139725 -0.00329052 0.0
0 0 0.0
0 0 0.0
-0.000216273 1.96044e-05 0.0
6.56428e-06 -5.8181e-05 0.0