# vtk DataFile Version 3.0
Mesh NS-CD Problem
ASCII
DATASET UNSTRUCTURED_GRID
POINTS 10839 float
-2 0.3 0.0
-2 0.4 0.0
-2 0.35 0.0
-2 0.45 0.0
-2 0.5 0.0
-2 0.55 0.0
-2 0 0.0
-2 0.05 0.0
-2 0.85 0.0
-2 0.9 0.0
-2 0.1 0.0
-2 0.15 0.0
-2 0.25 0.0
-2 0.2 0.0
-1.96653 0.266667 0.0
-1.96524 0.415385 0.0
-1.96485 0.315 0.0
-1.96348 0.363636 0.0
-1.96414 0.464286 0.0
-2 0.6 0.0
-1.96538 0.584615 0.0
-1.96538 0.538462 0.0
-1.94979 0 0.0
-1.96653 0.0666666 0.0
-1.93306 0.0333333 0.0
-2 0.8 0.0
-2 0.75 0.0
-2 0.7 0.0
-2 0.65 0.0
-1.96249 0.7375 0.0
-1.96666 0.833333 0.0
-2 1 0.0
-2 0.95 0.0
-1.96249 0.8875 0.0
-1.96666 0.933333 0.0
-1.96234 0.1125 0.0
-1.96653 0.166667 0.0
-1.93724 0.225 0.0
-1.92971 0.28 0.0
-1.93048 0.380769 0.0
-1.93048 0.423077 0.0
-1.89958 0.3375 0.0
-1.9292 0.484203 0.0
-1.92117 0.530907 0.0
-1.96363 0.636364 0.0
-1.93076 0.576923 0.0
-1.89958 0 0.0
-1.88703 0.0375 0.0
-1.90963 0.08 0.0
-1.86611 0.0666666 0.0
-1.93749 0.775 0.0
-1.93635 0.672727 0.0
-1.92999 0.72 0.0
-1.93332 0.866667 0.0
-1.92856 0.821429 0.0
-1.94999 1 0.0
-1.92499 0.9625 0.0
-1.92499 0.925 0.0
-1.89998 0.9 0.0
-1.89958 0.125 0.0
-1.92827 0.178571 0.0
-1.89958 0.233333 0.0
-1.89045 0.290909 0.0
-1.86096 0.311538 0.0
-1.89241 0.392857 0.0
-1.89334 0.448489 0.0
-1.85655 0.357143 0.0
-1.89614 0.653846 0.0
-1.89427 0.504121 0.0
-1.8952 0.559753 0.0
-1.89614 0.615385 0.0
-1.84937 0 0.0
-1.83264 0.0333333 0.0
-1.85655 0.107143 0.0
-1.81172 0.075 0.0
-1.89998 0.766667 0.0
-1.89089 0.709091 0.0
-1.87498 0.85 0.0
-1.85998 0.79 0.0
-1.88748 0.8125 0.0
-1.89998 1 0.0
-1.88748 0.9625 0.0
-1.86664 0.933333 0.0
-1.85712 0.892857 0.0
-1.87448 0.15 0.0
-1.86611 0.194444 0.0
-1.83264 0.133333 0.0
-1.83264 0.2625 0.0
-1.82068 0.321429 0.0
-1.85664 0.404762 0.0
-1.85674 0.452381 0.0
-1.85683 0.5 0.0
-1.81184 0.375 0.0
-1.85712 0.642857 0.0
-1.85693 0.547619 0.0
-1.85702 0.595238 0.0
-1.79917 0 0.0
-1.78482 0.0357143 0.0
-1.79917 0.116667 0.0
-1.76569 0.0666666 0.0
-1.85452 0.745455 0.0
-1.82689 0.692308 0.0
-1.81815 0.781818 0.0
-1.82497 0.825 0.0
-1.84997 1 0.0
-1.8333 0.958333 0.0
-1.81247 0.8875 0.0
-1.81247 0.925 0.0
-1.81742 0.218182 0.0
-1.82427 0.175 0.0
-1.77634 0.145455 0.0
-1.79144 0.242308 0.0
-1.78482 0.285714 0.0
-1.77469 0.332653 0.0
-1.81215 0.529762 0.0
-1.81194 0.422619 0.0
-1.81203 0.470238 0.0
-1.76714 0.392857 0.0
-1.81234 0.625 0.0
-1.79732 0.571429 0.0
-1.74896 0 0.0
-1.73222 0.0333333 0.0
-1.75398 0.105 0.0
-1.71883 0.07 0.0
-1.79227 0.730769 0.0
-1.78007 0.679121 0.0
-1.75765 0.769231 0.0
-1.78178 0.818182 0.0
-1.78996 0.86 0.0
-1.79996 1 0.0
-1.78568 0.964286 0.0
-1.76663 0.922222 0.0
-1.76569 0.1875 0.0
-1.73222 0.15 0.0
-1.74896 0.25 0.0
-1.73714 0.304762 0.0
-1.76743 0.537202 0.0
-1.72869 0.343878 0.0
-1.76732 0.485119 0.0
-1.76723 0.440476 0.0
-1.72243 0.410714 0.0
-1.76757 0.607143 0.0
-1.69875 0 0.0
-1.68369 0.035 0.0
-1.69875 0.1125 0.0
-1.66528 0.075 0.0
-1.74341 0.708974 0.0
-1.73324 0.665934 0.0
-1.70441 0.74478 0.0
-1.71423 0.785714 0.0
-1.72303 0.826923 0.0
-1.74541 0.854545 0.0
-1.74541 0.890909 0.0
-1.74996 1 0.0
-1.73745 0.9625 0.0
-1.71359 0.927273 0.0
-1.68716 0.153846 0.0
-1.7131 0.214286 0.0
-1.70725 0.275 0.0
-1.69712 0.321939 0.0
-1.72279 0.589286 0.0
-1.72261 0.5 0.0
-1.7227 0.544643 0.0
-1.6827 0.355102 0.0
-1.67773 0.428571 0.0
-1.70763 0.464286 0.0
-1.70369 0.62449 0.0
-1.64854 0 0.0
-1.63181 0.0375 0.0
-1.64137 0.142857 0.0
-1.61764 0.0769231 0.0
-1.69458 0.703846 0.0
-1.67471 0.657437 0.0
-1.66143 0.727637 0.0
-1.67125 0.768571 0.0
-1.67851 0.821429 0.0
-1.68841 0.861538 0.0
-1.70904 0.890909 0.0
-1.69995 1 0.0
-1.68176 0.963636 0.0
-1.67267 0.927273 0.0
-1.65427 0.187143 0.0
-1.66718 0.231429 0.0
-1.66554 0.3 0.0
-1.67802 0.571429 0.0
-1.67792 0.523809 0.0
-1.6367 0.366327 0.0
-1.63682 0.423469 0.0
-1.62568 0.502976 0.0
-1.6629 0.470238 0.0
-1.65254 0.618367 0.0
-1.6059 0.307143 0.0
-1.59833 0 0.0
-1.58288 0.0384615 0.0
-1.60563 0.169643 0.0
-1.58179 0.112271 0.0
-1.56964 0.0714286 0.0
-1.64574 0.690385 0.0
-1.62827 0.751429 0.0
-1.63371 0.791071 0.0
-1.64279 0.857143 0.0
-1.65378 0.896154 0.0
-1.64994 1 0.0
-1.6363 0.963636 0.0
-1.61916 0.930769 0.0
-1.61345 0.209107 0.0
-1.62126 0.248571 0.0
-1.56989 0.196429 0.0
-1.63324 0.553571 0.0
-1.58846 0.535714 0.0
-1.59408 0.361905 0.0
-1.59161 0.402211 0.0
-1.58832 0.464286 0.0
-1.61504 0.598581 0.0
-1.59683 0.64359 0.0
-1.57899 0.274107 0.0
-1.56176 0.322381 0.0
-1.54812 0 0.0
-1.53378 0.0357143 0.0
-1.54593 0.147619 0.0
-1.53385 0.0732143 0.0
-1.53393 0.110714 0.0
-1.58522 0.704286 0.0
-1.58709 0.745 0.0
-1.58896 0.785714 0.0
-1.60695 0.830357 0.0
-1.60707 0.892857 0.0
-1.59993 1 0.0
-1.58454 0.965385 0.0
-1.57135 0.928571 0.0
-1.55209 0.241071 0.0
-1.5291 0.198214 0.0
-1.56936 0.570918 0.0
-1.54369 0.517857 0.0
-1.5464 0.380952 0.0
-1.54564 0.427721 0.0
-1.54488 0.47449 0.0
-1.55026 0.606122 0.0
-1.54222 0.677143 0.0
-1.52943 0.282857 0.0
-1.52143 0.33619 0.0
-1.49792 0 0.0
-1.49802 0.05 0.0
-1.49822 0.15 0.0
-1.49312 0.1 0.0
-1.5423 0.717143 0.0
-1.54419 0.767857 0.0
-1.54727 0.819048 0.0
-1.57122 0.861905 0.0
-1.53553 0.914286 0.0
-1.54992 1 0.0
-1.53563 0.964286 0.0
-1.49842 0.25 0.0
-1.48831 0.2 0.0
-1.5214 0.558929 0.0
-1.49891 0.5 0.0
-1.49871 0.4 0.0
-1.47631 0.45 0.0
-1.49911 0.6 0.0
-1.49921 0.65 0.0
-1.49931 0.7 0.0
-1.48111 0.35 0.0
-1.48351 0.3 0.0
-1.44771 0 0.0
-1.44782 0.05 0.0
-1.44804 0.15 0.0
-1.44793 0.1 0.0
-1.49941 0.75 0.0
-1.49951 0.8 0.0
-1.49981 0.95 0.0
-1.49961 0.85 0.0
-1.49971 0.9 0.0
-1.49991 1 0.0
-1.44826 0.25 0.0
-1.43815 0.2 0.0
-1.47151 0.55 0.0
-1.44881 0.5 0.0
-1.44859 0.4 0.0
-1.42619 0.45 0.0
-1.44913 0.65 0.0
-1.44902 0.6 0.0
-1.44935 0.75 0.0
-1.44924 0.7 0.0
-1.43972 0.35 0.0
-1.43336 0.3 0.0
-1.3975 0 0.0
-1.39762 0.05 0.0
-1.39786 0.15 0.0
-1.39274 0.1 0.0
-1.44957 0.85 0.0
-1.44946 0.8 0.0
-1.4523 0.95 0.0
-1.44968 0.9 0.0
-1.4499 1 0.0
-1.3981 0.25 0.0
-1.38798 0.2 0.0
-1.42141 0.55 0.0
-1.3987 0.5 0.0
-1.39834 0.35 0.0
-1.37845 0.4 0.0
-1.37607 0.45 0.0
-1.40784 0.65 0.0
-1.39894 0.6 0.0
-1.41185 0.75 0.0
-1.39918 0.7 0.0
-1.38322 0.3 0.0
-1.34729 0 0.0
-1.34492 0.05 0.0
-1.34018 0.15 0.0
-1.34255 0.1 0.0
-1.40707 0.85 0.0
-1.39941 0.8 0.0
-1.39977 0.95 0.0
-1.39965 0.9 0.0
-1.39989 1 0.0
-1.33781 0.2 0.0
-1.33544 0.25 0.0
-1.37131 0.55 0.0
-1.34859 0.5 0.0
-1.33833 0.4 0.0
-1.3307 0.35 0.0
-1.32595 0.45 0.0
-1.34885 0.6 0.0
-1.36655 0.65 0.0
-1.36179 0.75 0.0
-1.34911 0.7 0.0
-1.33307 0.3 0.0
-1.29708 0 0.0
-1.29722 0.05 0.0
-1.2975 0.15 0.0
-1.29236 0.1 0.0
-1.35703 0.85 0.0
-1.34937 0.8 0.0
-1.34988 1 0.0
-1.34962 0.9 0.0
-1.35226 0.95 0.0
-1.28528 0.25 0.0
-1.28764 0.2 0.0
-1.28931 0.35 0.0
-1.32121 0.55 0.0
-1.29848 0.5 0.0
-1.28709 0.45 0.0
-1.2982 0.4 0.0
-1.29876 0.6 0.0
-1.31647 0.65 0.0
-1.29918 0.75 0.0
-1.29904 0.7 0.0
-1.28292 0.3 0.0
-1.24687 0 0.0
-1.24702 0.05 0.0
-1.24717 0.1 0.0
-1.24732 0.15 0.0
-1.29946 0.85 0.0
-1.29932 0.8 0.0
-1.29987 1 0.0
-1.29974 0.95 0.0
-1.30462 0.9 0.0
-1.24762 0.25 0.0
-1.23747 0.2 0.0
-1.24792 0.35 0.0
-1.22807 0.4 0.0
-1.27111 0.55 0.0
-1.24837 0.5 0.0
-1.24822 0.45 0.0
-1.24867 0.6 0.0
-1.26639 0.65 0.0
-1.26167 0.75 0.0
-1.24897 0.7 0.0
-1.23277 0.3 0.0
-1.19667 0 0.0
-1.19683 0.05 0.0
-1.18964 0.15 0.0
-1.19198 0.1 0.0
-1.25695 0.85 0.0
-1.24927 0.8 0.0
-1.25223 0.95 0.0
-1.24987 1 0.0
-1.24957 0.9 0.0
-1.1873 0.2 0.0
-1.18496 0.25 0.0
-1.18028 0.35 0.0
-1.17794 0.4 0.0
-1.1981 0.45 0.0
-1.19842 0.55 0.0
-1.19826 0.5 0.0
-1.19858 0.6 0.0
-1.19874 0.65 0.0
-1.19906 0.75 0.0
-1.1989 0.7 0.0
-1.18262 0.3 0.0
-1.14646 0 0.0
-1.14663 0.05 0.0
-1.1418 0.1 0.0
-1.13713 0.2 0.0
-1.14697 0.15 0.0
-1.20691 0.85 0.0
-1.20926 0.8 0.0
-1.20221 0.95 0.0
-1.19986 1 0.0
-1.20456 0.9 0.0
-1.13997 0.3 0.0
-1.14731 0.25 0.0
-1.13781 0.4 0.0
-1.13014 0.35 0.0
-1.12548 0.45 0.0
-1.14815 0.5 0.0
-1.15962 0.55 0.0
-1.14849 0.6 0.0
-1.15745 0.65 0.0
-1.16155 0.75 0.0
-1.14917 0.8 0.0
-1.14883 0.7 0.0
-1.09625 0 0.0
-1.09661 0.1 0.0
-1.09393 0.05 0.0
-1.09697 0.2 0.0
-1.08929 0.15 0.0
-1.15687 0.85 0.0
-1.14985 1 0.0
-1.15219 0.95 0.0
-1.14951 0.9 0.0
-1.09733 0.3 0.0
-1.08465 0.25 0.0
-1.09769 0.4 0.0
-1.08 0.35 0.0
-1.08661 0.45 0.0
-1.09804 0.5 0.0
-1.12082 0.55 0.0
-1.10916 0.8 0.0
-1.10629 0.7 0.0
-1.0984 0.6 0.0
-1.11616 0.65 0.0
-1.11149 0.75 0.0
-1.04604 0 0.0
-1.04623 0.05 0.0
-1.04642 0.1 0.0
-1.0468 0.2 0.0
-1.03911 0.15 0.0
-1.09948 0.9 0.0
-1.0993 0.85 0.0
-1.09984 1 0.0
-1.09966 0.95 0.0
-1.04718 0.3 0.0
-1.03449 0.25 0.0
-1.04756 0.4 0.0
-1.02986 0.35 0.0
-1.04775 0.45 0.0
-1.04794 0.5 0.0
-1.04813 0.55 0.0
-1.05911 0.8 0.0
-1.04831 0.6 0.0
-1.06376 0.7 0.0
-1.0485 0.65 0.0
-1.04888 0.75 0.0
-0.995833 0 0.0
-0.991231 0.1 0.0
-0.996033 0.05 0.0
-0.986629 0.2 0.0
-0.98893 0.15 0.0
-1.05447 0.9 0.0
-1.04926 0.85 0.0
-1.04983 1 0.0
-1.04964 0.95 0.0
-0.984328 0.25 0.0
-0.99703 0.3 0.0
-0.997429 0.4 0.0
-0.997628 0.45 0.0
-0.979726 0.35 0.0
-0.997827 0.5 0.0
-0.998027 0.55 0.0
-0.998226 0.6 0.0
-0.961416 0.475 0.0
-1.00907 0.8 0.0
-0.998426 0.65 0.0
-0.998625 0.7 0.0
-1.01138 0.75 0.0
-0.945625 0 0.0
-0.946044 0.1 0.0
-0.943334 0.05 0.0
-0.946463 0.2 0.0
-0.938752 0.15 0.0
-1.00444 0.9 0.0
-1.00675 0.85 0.0
-0.999821 1 0.0
-1.00213 0.95 0.0
-0.93417 0.25 0.0
-0.946881 0.3 0.0
-0.9473 0.4 0.0
-0.929588 0.35 0.0
-0.925005 0.45 0.0
-0.960371 0.525 0.0
-0.959325 0.575 0.0
-0.958279 0.625 0.0
-0.922714 0.5 0.0
-0.959017 0.8 0.0
-0.957233 0.675 0.0
-0.952999 0.7125 0.0
-0.948766 0.75 0.0
-0.895417 0 0.0
-0.895855 0.1 0.0
-0.893136 0.05 0.0
-0.896294 0.2 0.0
-0.888573 0.15 0.0
-0.949184 0.85 0.0
-0.954415 0.9 0.0
-0.949812 1 0.0
-0.949603 0.95 0.0
-0.884011 0.25 0.0
-0.896733 0.3 0.0
-0.874887 0.45 0.0
-0.879449 0.35 0.0
-0.897171 0.4 0.0
-0.920423 0.55 0.0
-0.918132 0.6 0.0
-0.915841 0.65 0.0
-0.872606 0.5 0.0
-0.908968 0.8 0.0
-0.91355 0.7 0.0
-0.898707 0.75 0.0
-0.845208 0 0.0
-0.845438 0.05 0.0
-0.845667 0.1 0.0
-0.845896 0.15 0.0
-0.833853 0.25 0.0
-0.846126 0.2 0.0
-0.899146 0.85 0.0
-0.904386 0.9 0.0
-0.899584 0.95 0.0
-0.899804 1 0.0
-0.838062 0.35 0.0
[...]
POINT_DATA 10839
VECTORS Velocity float
0.21 0 0.0
0.24 0 0.0
0.2275 0 0.0
0.2475 0 0.0
0.25 0 0.0
0.2475 0 0.0
0 0 0.0
0.0475 0 0.0
0.1275 0 0.0
0.09 0 0.0
0.09 0 0.0
0.1275 0 0.0
0.1875 0 0.0
0.16 0 0.0
0.195557 -2.43385e-05 0.0
0.242841 -3.31994e-05 0.0
0.215776 -2.89686e-05 0.0
0.231406 -3.26562e-05 0.0
0.248725 -3.53476e-05 0.0
0.24 0 0.0
0.24284 -3.31251e-05 0.0
0.24852 -3.40411e-05 0.0
0 0 0.0
0.0622239 -4.24361e-06 0.0
0.032227 -2.80534e-06 0.0
0.16 0 0.0
0.1875 0 0.0
0.21 0 0.0
0.2275 0 0.0
0.193592 -2.73197e-05 0.0
0.138887 -1.51707e-05 0.0
0 0 0.0
0.0475 0 0.0
0.0998415 -1.05387e-05 0.0
0.0622205 -4.29122e-06 0.0
0.0998462 -1.10118e-05 0.0
0.138891 -1.53057e-05 0.0
0.17438 -3.83627e-05 0.0
0.201606 -5.25501e-05 0.0
0.235787 -6.4161e-05 0.0
0.244085 -6.71361e-05 0.0
0.223602 -8.60167e-05 0.0
0.249751 -7.01434e-05 0.0
0.249044 -7.81626e-05 0.0
0.231404 -3.31865e-05 0.0
0.244081 -6.63417e-05 0.0
0 0 0.0
0.0361083 -5.42898e-06 0.0
0.0736128 -1.51753e-05 0.0
0.0622495 -1.66339e-05 0.0
0.17437 -3.77986e-05 0.0
0.220162 -5.25297e-05 0.0
0.201594 -5.26286e-05 0.0
0.115548 -2.26659e-05 0.0
0.146676 -3.51208e-05 0.0
0 0 0.0
0.0360873 -3.65639e-06 0.0
0.069366 -1.1863e-05 0.0
0.0899832 -2.3549e-05 0.0
0.109391 -3.18565e-05 0.0
0.146692 -3.44414e-05 0.0
0.178902 -6.43413e-05 0.0
0.206293 -8.41378e-05 0.0
0.214501 -0.000113404 0.0
0.238527 -0.00010059 0.0
0.24735 -0.000104747 0.0
0.229607 -0.000128056 0.0
0.226323 -9.03835e-05 0.0
0.249983 -0.000105266 0.0
0.246426 -0.000102411 0.0
0.23668 -9.64204e-05 0.0
0 0 0.0
0.0322509 -6.14042e-06 0.0
0.095697 -3.61907e-05 0.0
0.06943 -2.72822e-05 0.0
0.178876 -6.33625e-05 0.0
0.206269 -8.47747e-05 0.0
0.127476 -4.8855e-05 0.0
0.165873 -8.02059e-05 0.0
0.152325 -5.74233e-05 0.0
0 0 0.0
0.0360794 -5.25823e-06 0.0
0.0621954 -1.64576e-05 0.0
0.0956295 -3.68751e-05 0.0
0.127525 -4.93264e-05 0.0
0.156661 -7.16686e-05 0.0
0.115601 -5.66508e-05 0.0
0.193627 -0.000118244 0.0
0.218142 -0.000149652 0.0
0.24094 -0.000136448 0.0
0.247738 -0.000141512 0.0
0.25 -0.000143058 0.0
0.234398 -0.000173266 0.0
0.229576 -0.00012629 0.0
0.247727 -0.000141202 0.0
0.240919 -0.00013621 0.0
0 0 0.0
0.0344878 -8.50931e-06 0.0
0.103122 -5.56788e-05 0.0
0.062304 -2.76473e-05 0.0
0.189727 -0.000100472 0.0
0.212988 -0.000140384 0.0
0.170533 -0.00010883 0.0
0.144329 -8.07631e-05 0.0
0 0 0.0
0.0398977 -9.05883e-06 0.0
0.0997855 -5.0605e-05 0.0
0.0693205 -2.68344e-05 0.0
0.170625 -0.000108952 0.0
0.144422 -8.25077e-05 0.0
0.124378 -8.36988e-05 0.0
0.18365 -0.000137771 0.0
0.204132 -0.000164969 0.0
0.222039 -0.000194265 0.0
0.249109 -0.000187881 0.0
0.244027 -0.000182868 0.0
0.24912 -0.000187887 0.0
0.238551 -0.000220674 0.0
0.234352 -0.000172253 0.0
0.244882 -0.000198078 0.0
0 0 0.0
0.0322927 -9.01722e-06 0.0
0.0940753 -5.85552e-05 0.0
0.0652187 -3.50004e-05 0.0
0.196695 -0.000150666 0.0
0.217871 -0.000185146 0.0
0.177437 -0.000152962 0.0
0.148689 -0.000106694 0.0
0.120328 -7.46744e-05 0.0
0 0 0.0
0.0343903 -8.59243e-06 0.0
0.0716432 -3.51049e-05 0.0
0.152425 -0.000119682 0.0
0.127616 -0.000103992 0.0
0.187579 -0.000170935 0.0
0.211952 -0.000212957 0.0
0.248605 -0.000233316 0.0
0.225686 -0.000241302 0.0
0.249783 -0.000235007 0.0
0.246474 -0.000231043 0.0
0.242065 -0.000270475 0.0
0.23849 -0.000220062 0.0
0 0 0.0
0.0338753 -1.13103e-05 0.0
0.0999948 -7.82746e-05 0.0
0.069547 -4.66385e-05 0.0
0.206259 -0.000199378 0.0
0.222404 -0.000232449 0.0
0.189974 -0.000207246 0.0
0.168252 -0.000167348 0.0
0.143002 -0.000128342 0.0
0.124193 -9.46706e-05 0.0
0.0970828 -6.35759e-05 0.0
0 0 0.0
0.0360201 -1.09515e-05 0.0
0.0673135 -3.76422e-05 0.0
0.130336 -0.000125747 0.0
0.168484 -0.000168146 0.0
0.199474 -0.000219394 0.0
0.218379 -0.000257518 0.0
0.241992 -0.000271147 0.0
0.25 -0.000283038 0.0
0.247988 -0.000279739 0.0
0.229082 -0.000290619 0.0
0.244938 -0.000322209 0.0
0.248741 -0.00029704 0.0
0.234444 -0.000277854 0.0
0 0 0.0
0.036234 -1.45925e-05 0.0
0.122661 -0.000128887 0.0
0.0712318 -5.52018e-05 0.0
0.208348 -0.000243971 0.0
0.225125 -0.000290422 0.0
0.198046 -0.000253371 0.0
0.177723 -0.000209784 0.0
0.146524 -0.000154667 0.0
0.11913 -0.000108024 0.0
0.0970495 -7.21544e-05 0.0
0 0 0.0
0.0349376 -1.2269e-05 0.0
0.0672758 -4.24042e-05 0.0
0.152303 -0.00017586 0.0
0.178019 -0.000214724 0.0
0.210117 -0.000271671 0.0
0.244858 -0.000322136 0.0
0.24942 -0.000330929 0.0
0.232227 -0.000341996 0.0
0.244198 -0.000366688 0.0
0.249988 -0.000391427 0.0
0.249132 -0.000347742 0.0
0.235912 -0.000332904 0.0
0.212965 -0.00033189 0.0
0 0 0.0
0.0371633 -1.72013e-05 0.0
0.141113 -0.000179477 0.0
0.0999612 -0.000108518 0.0
0.0666029 -5.38185e-05 0.0
0.213627 -0.00029697 0.0
0.186605 -0.000258557 0.0
0.165082 -0.000210397 0.0
0.122238 -0.000129613 0.0
0.0928635 -7.91858e-05 0.0
0 0 0.0
0.0349077 -1.37063e-05 0.0
0.0642241 -4.50536e-05 0.0
0.1656 -0.000224908 0.0
0.18697 -0.000264322 0.0
0.158127 -0.000235376 0.0
0.247091 -0.000376592 0.0
0.248691 -0.000432952 0.0
0.231053 -0.000384128 0.0
0.240527 -0.000409954 0.0
0.248758 -0.000432576 0.0
0.240202 -0.000383091 0.0
0.229255 -0.000376436 0.0
0.199184 -0.000324951 0.0
0.218636 -0.000388407 0.0
0 0 0.0
0.0346513 -1.68828e-05 0.0
0.126174 -0.000174486 0.0
0.0681821 -6.08349e-05 0.0
0.0988242 -0.000118212 0.0
0.20808 -0.000339803 0.0
0.189757 -0.00029627 0.0
0.168122 -0.000245918 0.0
0.140616 -0.000178147 0.0
0.0954056 -9.42408e-05 0.0
0 0 0.0
0.0332513 -1.40338e-05 0.0
0.0660526 -5.36662e-05 0.0
0.183227 -0.000307073 0.0
0.159267 -0.000263465 0.0
0.244897 -0.000446416 0.0
0.24966 -0.000490057 0.0
0.235963 -0.000449558 0.0
0.244859 -0.000475174 0.0
0.249378 -0.000488859 0.0
0.238619 -0.000452049 0.0
0.218418 -0.000408614 0.0
0.203108 -0.000379168 0.0
0.223373 -0.000444112 0.0
0 0 0.0
0.0478095 -3.37112e-05 0.0
0.127926 -0.000198977 0.0
0.0904293 -0.000111017 0.0
0.202605 -0.000365318 0.0
0.177963 -0.000300496 0.0
0.147883 -0.000225549 0.0
0.118715 -0.000147902 0.0
0.0780227 -7.91401e-05 0.0
0 0 0.0
0.034229 -1.65409e-05 0.0
0.187836 -0.000363603 0.0
0.160406 -0.000293185 0.0
0.246451 -0.000510151 0.0
0.25 -0.000549653 0.0
0.240141 -0.000519027 0.0
0.247578 -0.00057219 0.0
0.239858 -0.000518644 0.0
0.227289 -0.00048024 0.0
0.209725 -0.000427297 0.0
0.227727 -0.000504008 0.0
0.210294 -0.000445186 0.0
0 0 0.0
0.0478737 -3.76088e-05 0.0
0.128022 -0.000222157 0.0
0.0905126 -0.00012208 0.0
0.187165 -0.000361765 0.0
0.159613 -0.000283637 0.0
0.0471945 -3.30604e-05 0.0
0.127078 -0.000196292 0.0
0.0895836 -0.000108712 0.0
0 0 0.0
0.187913 -0.000408617 0.0
0.160498 -0.000328163 0.0
0.247419 -0.000578733 0.0
0.249999 -0.00061927 0.0
0.240174 -0.000585134 0.0
0.247595 -0.000643246 0.0
0.227242 -0.000540708 0.0
0.239825 -0.000584011 0.0
0.187088 -0.000406417 0.0
0.209662 -0.000480765 0.0
0.227768 -0.000553278 0.0
0.21036 -0.000500418 0.0
0 0 0.0
0.0479444 -4.1238e-05 0.0
0.12813 -0.000247035 0.0
0.0906254 -0.000136925 0.0
0.126981 -0.000219997 0.0
0.159525 -0.00031827 0.0
0.0471345 -3.66657e-05 0.0
0.0894926 -0.000120842 0.0
0 0 0.0
0.188001 -0.000456342 0.0
0.1606 -0.000365849 0.0
0.247401 -0.000649543 0.0
0.249999 -0.000693771 0.0
0.227813 -0.000606919 0.0
0.240226 -0.000684317 0.0
0.247614 -0.000719926 0.0
0.227196 -0.000591959 0.0
0.239788 -0.000654202 0.0
0.187024 -0.000440758 0.0
0.20959 -0.000537852 0.0
0.210434 -0.000559416 0.0
0 0 0.0
0.0480274 -4.58623e-05 0.0
0.128269 -0.000277912 0.0
0.0907404 -0.000151263 0.0
0.126892 -0.000240316 0.0
0.159425 -0.000354417 0.0
0.0470616 -4.07299e-05 0.0
0.0893919 -0.000133414 0.0
0 0 0.0
0.160715 -0.000405881 0.0
0.188125 -0.000520308 0.0
0.247381 -0.00072547 0.0
0.249998 -0.000773782 0.0
0.240261 -0.000747328 0.0
0.227898 -0.000702011 0.0
0.247636 -0.000801285 0.0
0.239745 -0.000729008 0.0
0.227147 -0.00064792 0.0
0.186929 -0.000490279 0.0
0.209509 -0.000598548 0.0
0.210517 -0.000623277 0.0
0 0 0.0
0.048111 -5.06215e-05 0.0
0.128385 -0.000303083 0.0
0.0908673 -0.000166922 0.0
0.126775 -0.000265963 0.0
0.159313 -0.000393501 0.0
0 0 0.0
0.0892794 -0.000147573 0.0
0.046988 -4.4758e-05 0.0
0.188237 -0.000578861 0.0
0.160844 -0.000449959 0.0
0.227957 -0.000765569 0.0
0.247358 -0.000807857 0.0
0.249998 -0.000860544 0.0
0.247654 -0.000869997 0.0
0.240299 -0.000813266 0.0
0.239699 -0.000810134 0.0
0.22708 -0.000720445 0.0
0.186795 -0.000557112 0.0
0.209419 -0.000664986 0.0
0.21061 -0.000691577 0.0
0 0 0.0
0.048206 -5.58201e-05 0.0
0.0909932 -0.000181927 0.0
0.128533 -0.000334428 0.0
0.126624 -0.000297949 0.0
0.159188 -0.000435539 0.0
0 0 0.0
0.0468998 -4.92317e-05 0.0
0.0891692 -0.000160627 0.0
0.188331 -0.000624488 0.0
0.160987 -0.000497956 0.0
0.228019 -0.000833902 0.0
0.240371 -0.000939847 0.0
0.247333 -0.000897277 0.0
0.249997 -0.000954121 0.0
0.247675 -0.000942381 0.0
0.239646 -0.000897995 0.0
0.227006 -0.000799189 0.0
0.186705 -0.000601361 0.0
0.209319 -0.000735821 0.0
0.210714 -0.0007666 0.0
0 0 0.0
0.0483119 -6.13011e-05 0.0
0.128724 -0.000375398 0.0
0.0911633 -0.000203245 0.0
0.1265 -0.000323919 0.0
0.15905 -0.000481099 0.0
0.0468118 -5.34804e-05 0.0
0 0 0.0
0.0890207 -0.000178292 0.0
0.161145 -0.000550334 0.0
0.188501 -0.000707302 0.0
0.228137 -0.000956186 0.0
0.240432 -0.00104227 0.0
0.247702 -0.00104445 0.0
0.24729 -0.00103816 0.0
0.249996 -0.00105785 0.0
0.239587 -0.00099573 0.0
0.226893 -0.00091427 0.0
0.186539 -0.000680212 0.0
0.209207 -0.00081428 0.0
0.210829 -0.000847945 0.0
0 0 0.0
0.0484272 -6.72204e-05 0.0
0.0913339 -0.000222901 0.0
0.16132 -0.000605956 0.0
0.12888 -0.000407164 0.0
0.12634 -0.000356752 0.0
0.158928 -0.000520383 0.0
0.0467093 -5.9093e-05 0.0
0 0 0.0
0.0888847 -0.000194515 0.0
0.210937 -0.000923573 0.0
0.188618 -0.000763789 0.0
0.240484 -0.00112891 0.0
0.228235 -0.00106025 0.0
0.247749 -0.00120625 0.0
0.249995 -0.00116948 0.0
0.247264 -0.00112223 0.0
0.239522 -0.00110015 0.0
0.226814 -0.000992326 0.0
0.186427 -0.000732349 0.0
0.158727 -0.00058532 0.0
0.209083 -0.000898276 0.0
0 0 0.0
0.0915049 -0.00024364 0.0
0.048563 -7.46962e-05 0.0
0.161475 -0.000657128 0.0
0.129113 -0.00045701 0.0
0.126164 -0.000393189 0.0
0 0 0.0
0.046597 -6.49924e-05 0.0
0.0887036 -0.000216058 0.0
0.211056 -0.00100408 0.0
0.188828 -0.000866691 0.0
0.24054 -0.00122233 0.0
0.228344 -0.0011731 0.0
0.247775 -0.00130611 0.0
0.249991 -0.00129288 0.0
0.247236 -0.00121473 0.0
0.158577 -0.000630257 0.0
0.208967 -0.000975722 0.0
0.239448 -0.00121326 0.0
0.226728 -0.00107733 0.0
0.186266 -0.000807922 0.0
0 0 0.0
0.0486965 -8.13994e-05 0.0
0.0917093 -0.000267644 0.0
0.161687 -0.000724461 0.0
0.12934 -0.000504176 0.0
0.0885202 -0.000237115 0.0
0.125939 -0.000439164 0.0
0 0 0.0
0.0464676 -7.19645e-05 0.0
0.211208 -0.00110954 0.0
0.18902 -0.00095843 0.0
0.240617 -0.00135073 0.0
0.228463 -0.0012977 0.0
0.247805 -0.00141308 0.0
0.24999 -0.00142925 0.0
0.247175 -0.001399 0.0
0.158376 -0.000693584 0.0
0.239368 -0.00133945 0.0
0.208841 -0.00105696 0.0
0.226573 -0.00123043 0.0
0.18604 -0.000914533 0.0
0 0 0.0
0.0919606 -0.000297582 0.0
0.0488505 -8.93398e-05 0.0
0.161969 -0.000815062 0.0
0.12959 -0.000556154 0.0
0.0883403 -0.00025875 0.0
0.125721 -0.000484737 0.0
0 0 0.0
0.0463301 -7.94625e-05 0.0
0.189231 -0.00106102 0.0
0.211377 -0.00122737 0.0
0.240703 -0.00149478 0.0
0.247846 -0.00155864 0.0
0.228596 -0.00143482 0.0
0.249986 -0.00157553 0.0
0.247129 -0.00154689 0.0
0.239278 -0.00147481 0.0
0.249554 -0.00169129 0.0
0.158152 -0.000763125 0.0
0.226441 -0.00135677 0.0
0.208625 -0.00119793 0.0
0.18589 -0.000982902 0.0
0 0 0.0
0.0921908 -0.000325082 0.0
0.0490312 -9.92439e-05 0.0
0.162181 -0.0008841 0.0
0.129868 -0.000613861 0.0
0.0881215 -0.000285069 0.0
0.125519 -0.000526531 0.0
0 0 0.0
0.0461878 -8.74087e-05 0.0
0.189466 -0.00117408 0.0
0.211564 -0.0013585 0.0
0.240791 -0.00165053 0.0
0.228742 -0.00158952 0.0
0.247909 -0.00180246 0.0
0.249158 -0.00168805 0.0
0.243766 -0.00163576 0.0
0.233385 -0.00153482 0.0
0.249976 -0.00182905 0.0
0.157908 -0.00083929 0.0
0.21802 -0.00138967 0.0
0.203216 -0.00125757 0.0
0.185617 -0.00110563 0.0
0 0 0.0
0.0924673 -0.000358445 0.0
0.0492182 -0.000108521 0.0
0.162469 -0.000979085 0.0
0.130176 -0.000679303 0.0
0.12522 -0.000588334 0.0
0.08788 -0.000314684 0.0
0 0 0.0
0.0460149 -9.6371e-05 0.0
0.189727 -0.00130158 0.0
0.211771 -0.001505 0.0
0.247953 -0.00198957 0.0
0.228902 -0.00176011 0.0
0.240896 -0.00182691 0.0
0.247041 -0.00180204 0.0
0.239112 -0.00172166 0.0
0.226194 -0.00159015 0.0
0.249963 -0.00201819 0.0
0.157638 -0.000923803 0.0
0.208299 -0.00140891 0.0
0.185371 -0.00121578 0.0
0 0 0.0
0.0494153 -0.000118806 0.0
0.0927746 -0.000397144 0.0
0.130466 -0.000741015 0.0
0.190014 -0.00144283 0.0
0.162791 -0.00108619 0.0
0.124931 -0.000647504 0.0
0.0876138 -0.000347461 0.0
0.0458302 -0.00010664 0.0
0 0 0.0
0.229046 -0.00191724 0.0
0.212 -0.00167143 0.0
0.247993 -0.00215229 0.0
0.241004 -0.00202514 0.0
0.226021 -0.00174706 0.0
0.246972 -0.00198515 0.0
0.238987 -0.00189445 0.0
0.24995 -0.00222686 0.0
0.185105 -0.00133286 0.0
0.157283 -0.00103117 0.0
0.208008 -0.00159044 0.0
0 0 0.0
0.0496441 -0.000132245 0.0
0.0931539 -0.000445514 0.0
0.130841 -0.0008226 0.0
0.19025 -0.00156627 0.0
0.163224 -0.00123934 0.0
0.124617 -0.000710651 0.0
0.0872932 -0.000386404 0.0
0.0456287 -0.000117404 0.0
0 0 0.0
0.12427 -0.000780336 0.0
0.2292 -0.00208334 0.0
0.212332 -0.00192271 0.0
0.241171 -0.00234154 0.0
0.248032 -0.00232499 0.0
0.225759 -0.00198004 0.0
0.238853 -0.00208131 0.0
0.246896 -0.00218825 0.0
0.249926 -0.00245745 0.0
0.184813 -0.0014592 0.0
0.156954 -0.00113289 0.0
0.207758 -0.00174643 0.0
0 0 0.0
0.0498983 -0.000146865 0.0
0.0935414 -0.000497659 0.0
0.13126 -0.000919198 0.0
0.190599 -0.00174362 0.0
0.163634 -0.00138659 0.0
0.045402 -0.000130832 0.0
0.0869669 -0.000426128 0.0
0 0 0.0
0.123954 -0.000839803 0.0
0.229404 -0.00231966 0.0
0.21262 -0.00214451 0.0
0.2413 -0.00259756 0.0
0.248079 -0.00257569 0.0
0.225574 -0.00213792 0.0
0.238702 -0.00228528 0.0
0.249898 -0.00271349 0.0
0.246762 -0.00251647 0.0
0.184572 -0.00155688 0.0
0.156595 -0.00123767 0.0
0.207483 -0.00190876 0.0
0 0 0.0
0.05018 -0.00016389 0.0
0.0939737 -0.000557338 0.0
0.131802 -0.00104795 0.0
0.19108 -0.00200447 0.0
0.212934 -0.00239897 0.0
0.164087 -0.00155834 0.0
0.0451703 -0.000143054 0.0
0.0866143 -0.000466704 0.0
0 0 0.0
0.123551 -0.000914061 0.0
0.229702 -0.0026775 0.0
0.241408 -0.00283004 0.0
0.248126 -0.00285363 0.0
0.249865 -0.00292571 0.0
0.225377 -0.00230081 0.0
0.238521 -0.00251192 0.0
0.246648 -0.00276927 0.0
0.156204 -0.00134787 0.0
0.184229 -0.00169695 0.0
0.207176 -0.00208213 0.0
0 0 0.0
0.0505195 -0.000186222 0.0
0.0944659 -0.000632201 0.0
0.132341 -0.0011869 0.0
0.191407 -0.00219074 0.0
0.213275 -0.00268298 0.0
0.164596 -0.0017575 0.0
0.044902 -0.00015617 0.0
0.0862295 -0.000508659 0.0
0 0 0.0
0.155868 -0.00143094 0.0
0.085816 -0.000548504 0.0
0.123046 -0.000999217 0.0
0.229946 -0.00300366 0.0
0.241516 -0.00307308 0.0
0.248184 -0.00331235 0.0
0.24983 -0.00314832 0.0
0.246547 -0.00298433 0.0
0.22511 -0.00251173 0.0
0.238239 -0.00285744 0.0
0.183749 -0.00187723 0.0
0.206891 -0.00224262 0.0
0.230162 -0.00328747 0.0
0 0 0.0
0.050885 -0.000211922 0.0
0.132948 -0.00135231 0.0
0.0950232 -0.000722879 0.0
0.213652 -0.00301914 0.0
0.191998 -0.00254335 0.0
0.165162 -0.00199081 0.0
0.0445981 -0.000169326 0.0
0 0 0.0
0.18343 -0.00199322 0.0
0.155412 -0.00154281 0.0
0.122567 -0.0010755 0.0
0.0442785 -0.000184999 0.0
0.0853678 -0.000590138 0.0
0.241662 -0.00342386 0.0
0.248206 -0.00359288 0.0
0.249759 -0.0034771 0.0
0.249696 -0.00375078 0.0
0.246427 -0.00321102 0.0
0.224803 -0.00274149 0.0
0.237987 -0.00313002 0.0
0.206575 -0.00239861 0.0
0.230376 -0.00360623 0.0
0.0512854 -0.000242741 0.0
0 0 0.0
0.133525 -0.0015139 0.0
0.0956563 -0.000828634 0.0
0.214055 -0.00340009 0.0
0.192394 -0.00279374 0.0
0.165796 -0.00226686 0.0
0 0 0.0
0.182974 -0.0021404 0.0
0.154813 -0.00167054 0.0
0.122136 -0.00112935 0.0
0.0439593 -0.000197028 0.0
0.0848926 -0.000628536 0.0
0.241855 -0.00399211 0.0
0.248225 -0.00388893 0.0
0.249611 -0.00403791 0.0
0.246163 -0.00367296 0.0
0.224462 -0.00298012 0.0
0.237709 -0.00342111 0.0
0.206037 -0.00265827 0.0
0.230666 -0.00404987 0.0
0 0 0.0
0.0517651 -0.000282521 0.0
0.134284 -0.00174032 0.0
0.0963135 -0.000945527 0.0
0.166502 -0.00258569 0.0
0.214493 -0.00384262 0.0
0.193115 -0.00326759 0.0
0 0 0.0
0 0 0.0
0.182463 -0.00229341 0.0
0.154266 -0.00177744 0.0
0.121595 -0.0011952 0.0
0.0843917 -0.000663681 0.0
0.0436028 -0.000208024 0.0
0.241991 -0.00445819 0.0
0.248222 -0.00432133 0.0
0.237448 -0.00367044 0.0
0.249475 -0.00445733 0.0
0.245923 -0.00403899 0.0
0.224068 -0.00323806 0.0
0.205557 -0.00286263 0.0
0.242089 -0.0048792 0.0
0.230947 -0.00455327 0.0
0.0523181 -0.000327032 0.0
0.0971385 -0.00109204 0.0
0.135151 -0.00201241 0.0
0.16713 -0.00289018 0.0
0.214966 -0.00434428 0.0
0.193588 -0.00361415 0.0
0 0 0.0
0 0 0.0
0.153797 -0.00184921 0.0
0.181756 -0.00247457 0.0
0.08392 -0.000688058 0.0
0.120932 -0.0012605 0.0
0.0432237 -0.000219985 0.0
0.248187 -0.00501645 0.0
0.249287 -0.00492618 0.0
0.205027 -0.00307163 0.0
0.237152 -0.00392755 0.0
0.245713 -0.00434543 0.0
0.22345 -0.00360132 0.0
0.242182 -0.0053207 0.0
0.231362 -0.0053405 0.0
0.215463 -0.00492426 0.0
0.0530053 -0.000384825 0.0
0.0980946 -0.00127742 0.0
0.136294 -0.00238403 0.0
0.167997 -0.00331389 0.0
0.194453 -0.0042648 0.0
0 0 0.0
0 0 0.0
0.153038 -0.00195495 0.0
0.181117 -0.00262501 0.0
0.0833265 -0.000714246 0.0
0.120322 -0.00130875 0.0
0.0428176 -0.000228711 0.0
0.245464 -0.00467179 0.0
0.249054 -0.00543036 0.0
0.248101 -0.00558445 0.0
0.204427 -0.00328507 0.0
0.236733 -0.00427867 0.0
0.222909 -0.00389996 0.0
0.180417 -0.002769 0.0
0.242296 -0.00621668 0.0
0 0 0.0
0.231642 -0.00603232 0.0
0.195218 -0.00488669 0.0
0.215984 -0.00557892 0.0
0.0537425 -0.000452507 0.0
0.137269 -0.00271972 0.0
0.0993302 -0.00152993 0.0
0.169163 -0.00394445 0.0
0 0 0.0
0 0 0.0
0 0 0.0
0 0 0.0
0 0 0.0
0.0424381 -0.000233818 0.0
0.11968 -0.00135143 0.0
0.152345 -0.00203961 0.0
0.0828169 -0.000734106 0.0
0.245085 -0.0051117 0.0
0.248751 -0.00599106 0.0
0.247984 -0.00620934 0.0
0.222405 -0.00413767 0.0
0.203746 -0.00350329 0.0
0.236014 -0.00480548 0.0
0.203107 -0.00368976 0.0
0.179837 -0.00287068 0.0
0.242323 -0.00696382 0.0
0.231926 -0.00679054 0.0
0 0 0.0
9.31679e-05 -4.00442e-05 0.0
0 0 0.0
-0.000296323 0.00154903 0.0
0.216537 -0.00633817 0.0
0.195842 -0.00540753 0.0
0.0546944 -0.000544525 0.0
0.138552 -0.00316995 0.0
0.100646 -0.00180819 0.0
0.170275 -0.00457002 0.0
0 0 0.0
0 0 0.0
0 0 0.0
-0.000213361 0.000777547 0.0
-4.71236e-06 -0.000139297 0.0
6.8787e-05 -8.65955e-05 0.0
0 0 0.0
0.0420224 -0.000240653 0.0
0.119115 -0.00137902 0.0
0.151602 -0.00211546 0.0
0.0821876 -0.000753134 0.0
0.244635 -0.00560071 0.0
0.248372 -0.00660317 0.0
0.2478 -0.00689469 0.0
0.22184 -0.0043956 0.0
0.235528 -0.00514292 0.0
0.202397 -0.00387418 0.0
0.178789 -0.00303976 0.0
0.242317 -0.00778333 0.0
0.23517 -0.00764755 0.0
0.22521 -0.00733367 0.0
0 0 0.0
0.000156556 -1.27379e-05 0.0
0 0 0.0
0 0 0.0
-0.00106834 0.00365112 0.0
-0.000993486 0.00230059 0.0
0.212405 -0.00687795 0.0
0.196715 -0.00620096 0.0
0.102024 -0.00211107 0.0
0.0557259 -0.000657316 0.0
0.140013 -0.00371553 0.0
0.171495 -0.00529943 0.0
0 0 0.0
-0.0003141 0.000303238 0.0
-0.000646559 0.00109869 0.0
-0.000158035 6.3801e-05 0.0
-8.3454e-05 0.000114157 0.0
0 0 0.0
0.0416 -0.000246344 0.0
0.118425 -0.0014085 0.0
0.150811 -0.00217875 0.0
0.0815971 -0.000767445 0.0
0.244091 -0.00612479 0.0
0.247908 -0.00726716 0.0
0.247541 -0.00764864 0.0
0.220776 -0.00484123 0.0
0.234977 -0.00548292 0.0
0.201465 -0.00410719 0.0
0.149967 -0.00225305 0.0
0.17785 -0.00318287 0.0
0.242262 -0.00849489 0.0
0.232334 -0.00827624 0.0
0.217496 -0.00789153 0.0
0 0 0.0
4.1282e-06 8.66274e-05 0.0
0 0 0.0
0 0 0.0
0 0 0.0
0 0 0.0
-0.00175978 0.00246883 0.0
-0.00031234 0.00323169 0.0
-0.00111616 0.00484236 0.0
-0.00256909 0.00640758 0.0
-0.00211164 0.00426345 0.0
0 0 0.0
-8.30539e-05 0.00516749 0.0
0.197879 -0.00738876 0.0
0.172563 -0.0059969 0.0
0 0 0.0
0.0570929 -0.000817574 0.0
0.103795 -0.00253394 0.0
0.141946 -0.00452686 0.0
0 0 0.0
0 0 0.0
-0.00100173 0.00110712 0.0
-0.000703078 0.000605471 0.0