# vtk DataFile Version 3.0
Mesh NS-CD Problem
ASCII
DATASET UNSTRUCTURED_GRID
POINTS 10839 float
-2 0.3 0.0
-2 0.4 0.0
-2 0.35 0.0
-2 0.45 0.0
-2 0.5 0.0
-2 0.55 0.0
-2 0 0.0
-2 0.05 0.0
-2 0.85 0.0
-2 0.9 0.0
-2 0.1 0.0
-2 0.15 0.0
-2 0.25 0.0
-2 0.2 0.0
-1.96653 0.266667 0.0
-1.96524 0.415385 0.0
-1.96485 0.315 0.0
-1.96348 0.363636 0.0
-1.96414 0.464286 0.0
-2 0.6 0.0
-1.96538 0.584615 0.0
-1.96538 0.538462 0.0
-1.94979 0 0.0
-1.96653 0.0666666 0.0
-1.93306 0.0333333 0.0
-2 0.8 0.0
-2 0.75 0.0
-2 0.7 0.0
-2 0.65 0.0
-1.96249 0.7375 0.0
-1.96666 0.833333 0.0
-2 1 0.0
-2 0.95 0.0
-1.96249 0.8875 0.0
-1.96666 0.933333 0.0
-1.96234 0.1125 0.0
-1.96653 0.166667 0.0
-1.93724 0.225 0.0
-1.92971 0.28 0.0
-1.93048 0.380769 0.0
-1.93048 0.423077 0.0
-1.89958 0.3375 0.0
-1.9292 0.484203 0.0
-1.92117 0.530907 0.0
-1.96363 0.636364 0.0
-1.93076 0.576923 0.0
-1.89958 0 0.0
-1.88703 0.0375 0.0
-1.90963 0.08 0.0
-1.86611 0.0666666 0.0
-1.93749 0.775 0.0
-1.93635 0.672727 0.0
-1.92999 0.72 0.0
-1.93332 0.866667 0.0
-1.92856 0.821429 0.0
-1.94999 1 0.0
-1.92499 0.9625 0.0
-1.92499 0.925 0.0
-1.89998 0.9 0.0
-1.89958 0.125 0.0
-1.92827 0.178571 0.0
-1.89958 0.233333 0.0
-1.89045 0.290909 0.0
-1.86096 0.311538 0.0
-1.89241 0.392857 0.0
-1.89334 0.448489 0.0
-1.85655 0.357143 0.0
-1.89614 0.653846 0.0
-1.89427 0.504121 0.0
-1.8952 0.559753 0.0
-1.89614 0.615385 0.0
-1.84937 0 0.0
-1.83264 0.0333333 0.0
-1.85655 0.107143 0.0
-1.81172 0.075 0.0
-1.89998 0.766667 0.0
-1.89089 0.709091 0.0
-1.87498 0.85 0.0
-1.85998 0.79 0.0
-1.88748 0.8125 0.0
-1.89998 1 0.0
-1.88748 0.9625 0.0
-1.86664 0.933333 0.0
-1.85712 0.892857 0.0
-1.87448 0.15 0.0
-1.86611 0.194444 0.0
-1.83264 0.133333 0.0
-1.83264 0.2625 0.0
-1.82068 0.321429 0.0
-1.85664 0.404762 0.0
-1.85674 0.452381 0.0
-1.85683 0.5 0.0
-1.81184 0.375 0.0
-1.85712 0.642857 0.0
-1.85693 0.547619 0.0
-1.85702 0.595238 0.0
-1.79917 0 0.0
-1.78482 0.0357143 0.0
-1.79917 0.116667 0.0
-1.76569 0.0666666 0.0
-1.85452 0.745455 0.0
-1.82689 0.692308 0.0
-1.81815 0.781818 0.0
-1.82497 0.825 0.0
-1.84997 1 0.0
-1.8333 0.958333 0.0
-1.81247 0.8875 0.0
-1.81247 0.925 0.0
-1.81742 0.218182 0.0
-1.82427 0.175 0.0
-1.77634 0.145455 0.0
-1.79144 0.242308 0.0
-1.78482 0.285714 0.0
-1.77469 0.332653 0.0
-1.81215 0.529762 0.0
-1.81194 0.422619 0.0
-1.81203 0.470238 0.0
-1.76714 0.392857 0.0
-1.81234 0.625 0.0
-1.79732 0.571429 0.0
-1.74896 0 0.0
-1.73222 0.0333333 0.0
-1.75398 0.105 0.0
-1.71883 0.07 0.0
-1.79227 0.730769 0.0
-1.78007 0.679121 0.0
-1.75765 0.769231 0.0
-1.78178 0.818182 0.0
-1.78996 0.86 0.0
-1.79996 1 0.0
-1.78568 0.964286 0.0
-1.76663 0.922222 0.0
-1.76569 0.1875 0.0
-1.73222 0.15 0.0
-1.74896 0.25 0.0
-1.73714 0.304762 0.0
-1.76743 0.537202 0.0
-1.72869 0.343878 0.0
-1.76732 0.485119 0.0
-1.76723 0.440476 0.0
-1.72243 0.410714 0.0
-1.76757 0.607143 0.0
-1.69875 0 0.0
-1.68369 0.035 0.0
-1.69875 0.1125 0.0
-1.66528 0.075 0.0
-1.74341 0.708974 0.0
-1.73324 0.665934 0.0
-1.70441 0.74478 0.0
-1.71423 0.785714 0.0
-1.72303 0.826923 0.0
-1.74541 0.854545 0.0
-1.74541 0.890909 0.0
-1.74996 1 0.0
-1.73745 0.9625 0.0
-1.71359 0.927273 0.0
-1.68716 0.153846 0.0
-1.7131 0.214286 0.0
-1.70725 0.275 0.0
-1.69712 0.321939 0.0
-1.72279 0.589286 0.0
-1.72261 0.5 0.0
-1.7227 0.544643 0.0
-1.6827 0.355102 0.0
-1.67773 0.428571 0.0
-1.70763 0.464286 0.0
-1.70369 0.62449 0.0
-1.64854 0 0.0
-1.63181 0.0375 0.0
-1.64137 0.142857 0.0
-1.61764 0.0769231 0.0
-1.69458 0.703846 0.0
-1.67471 0.657437 0.0
-1.66143 0.727637 0.0
-1.67125 0.768571 0.0
-1.67851 0.821429 0.0
-1.68841 0.861538 0.0
-1.70904 0.890909 0.0
-1.69995 1 0.0
-1.68176 0.963636 0.0
-1.67267 0.927273 0.0
-1.65427 0.187143 0.0
-1.66718 0.231429 0.0
-1.66554 0.3 0.0
-1.67802 0.571429 0.0
-1.67792 0.523809 0.0
-1.6367 0.366327 0.0
-1.63682 0.423469 0.0
-1.62568 0.502976 0.0
-1.6629 0.470238 0.0
-1.65254 0.618367 0.0
-1.6059 0.307143 0.0
-1.59833 0 0.0
-1.58288 0.0384615 0.0
-1.60563 0.169643 0.0
-1.58179 0.112271 0.0
-1.56964 0.0714286 0.0
-1.64574 0.690385 0.0
-1.62827 0.751429 0.0
-1.63371 0.791071 0.0
-1.64279 0.857143 0.0
-1.65378 0.896154 0.0
-1.64994 1 0.0
-1.6363 0.963636 0.0
-1.61916 0.930769 0.0
-1.61345 0.209107 0.0
-1.62126 0.248571 0.0
-1.56989 0.196429 0.0
-1.63324 0.553571 0.0
-1.58846 0.535714 0.0
-1.59408 0.361905 0.0
-1.59161 0.402211 0.0
-1.58832 0.464286 0.0
-1.61504 0.598581 0.0
-1.59683 0.64359 0.0
-1.57899 0.274107 0.0
-1.56176 0.322381 0.0
-1.54812 0 0.0
-1.53378 0.0357143 0.0
-1.54593 0.147619 0.0
-1.53385 0.0732143 0.0
-1.53393 0.110714 0.0
-1.58522 0.704286 0.0
-1.58709 0.745 0.0
-1.58896 0.785714 0.0
-1.60695 0.830357 0.0
-1.60707 0.892857 0.0
-1.59993 1 0.0
-1.58454 0.965385 0.0
-1.57135 0.928571 0.0
-1.55209 0.241071 0.0
-1.5291 0.198214 0.0
-1.56936 0.570918 0.0
-1.54369 0.517857 0.0
-1.5464 0.380952 0.0
-1.54564 0.427721 0.0
-1.54488 0.47449 0.0
-1.55026 0.606122 0.0
-1.54222 0.677143 0.0
-1.52943 0.282857 0.0
-1.52143 0.33619 0.0
-1.49792 0 0.0
-1.49802 0.05 0.0
-1.49822 0.15 0.0
-1.49312 0.1 0.0
-1.5423 0.717143 0.0
-1.54419 0.767857 0.0
-1.54727 0.819048 0.0
-1.57122 0.861905 0.0
-1.53553 0.914286 0.0
-1.54992 1 0.0
-1.53563 0.964286 0.0
-1.49842 0.25 0.0
-1.48831 0.2 0.0
-1.5214 0.558929 0.0
-1.49891 0.5 0.0
-1.49871 0.4 0.0
-1.47631 0.45 0.0
-1.49911 0.6 0.0
-1.49921 0.65 0.0
-1.49931 0.7 0.0
-1.48111 0.35 0.0
-1.48351 0.3 0.0
-1.44771 0 0.0
-1.44782 0.05 0.0
-1.44804 0.15 0.0
-1.44793 0.1 0.0
-1.49941 0.75 0.0
-1.49951 0.8 0.0
-1.49981 0.95 0.0
-1.49961 0.85 0.0
-1.49971 0.9 0.0
-1.49991 1 0.0
-1.44826 0.25 0.0
-1.43815 0.2 0.0
-1.47151 0.55 0.0
-1.44881 0.5 0.0
-1.44859 0.4 0.0
-1.42619 0.45 0.0
-1.44913 0.65 0.0
-1.44902 0.6 0.0
-1.44935 0.75 0.0
-1.44924 0.7 0.0
-1.43972 0.35 0.0
-1.43336 0.3 0.0
-1.3975 0 0.0
-1.39762 0.05 0.0
-1.39786 0.15 0.0
-1.39274 0.1 0.0
-1.44957 0.85 0.0
-1.44946 0.8 0.0
-1.4523 0.95 0.0
-1.44968 0.9 0.0
-1.4499 1 0.0
-1.3981 0.25 0.0
-1.38798 0.2 0.0
-1.42141 0.55 0.0
-1.3987 0.5 0.0
-1.39834 0.35 0.0
-1.37845 0.4 0.0
-1.37607 0.45 0.0
-1.40784 0.65 0.0
-1.39894 0.6 0.0
-1.41185 0.75 0.0
-1.39918 0.7 0.0
-1.38322 0.3 0.0
-1.34729 0 0.0
-1.34492 0.05 0.0
-1.34018 0.15 0.0
-1.34255 0.1 0.0
-1.40707 0.85 0.0
-1.39941 0.8 0.0
-1.39977 0.95 0.0
-1.39965 0.9 0.0
-1.39989 1 0.0
-1.33781 0.2 0.0
-1.33544 0.25 0.0
-1.37131 0.55 0.0
-1.34859 0.5 0.0
-1.33833 0.4 0.0
-1.3307 0.35 0.0
-1.32595 0.45 0.0
-1.34885 0.6 0.0
-1.36655 0.65 0.0
-1.36179 0.75 0.0
-1.34911 0.7 0.0
-1.33307 0.3 0.0
-1.29708 0 0.0
-1.29722 0.05 0.0
-1.2975 0.15 0.0
-1.29236 0.1 0.0
-1.35703 0.85 0.0
-1.34937 0.8 0.0
-1.34988 1 0.0
-1.34962 0.9 0.0
-1.35226 0.95 0.0
-1.28528 0.25 0.0
-1.28764 0.2 0.0
-1.28931 0.35 0.0
-1.32121 0.55 0.0
-1.29848 0.5 0.0
-1.28709 0.45 0.0
-1.2982 0.4 0.0
-1.29876 0.6 0.0
-1.31647 0.65 0.0
-1.29918 0.75 0.0
-1.29904 0.7 0.0
-1.28292 0.3 0.0
-1.24687 0 0.0
-1.24702 0.05 0.0
-1.24717 0.1 0.0
-1.24732 0.15 0.0
-1.29946 0.85 0.0
-1.29932 0.8 0.0
-1.29987 1 0.0
-1.29974 0.95 0.0
-1.30462 0.9 0.0
-1.24762 0.25 0.0
-1.23747 0.2 0.0
-1.24792 0.35 0.0
-1.22807 0.4 0.0
-1.27111 0.55 0.0
-1.24837 0.5 0.0
-1.24822 0.45 0.0
-1.24867 0.6 0.0
-1.26639 0.65 0.0
-1.26167 0.75 0.0
-1.24897 0.7 0.0
-1.23277 0.3 0.0
-1.19667 0 0.0
-1.19683 0.05 0.0
-1.18964 0.15 0.0
-1.19198 0.1 0.0
-1.25695 0.85 0.0
-1.24927 0.8 0.0
-1.25223 0.95 0.0
-1.24987 1 0.0
-1.24957 0.9 0.0
-1.1873 0.2 0.0
-1.18496 0.25 0.0
-1.18028 0.35 0.0
-1.17794 0.4 0.0
-1.1981 0.45 0.0
-1.19842 0.55 0.0
-1.19826 0.5 0.0
-1.19858 0.6 0.0
-1.19874 0.65 0.0
-1.19906 0.75 0.0
-1.1989 0.7 0.0
-1.18262 0.3 0.0
-1.14646 0 0.0
-1.14663 0.05 0.0
-1.1418 0.1 0.0
-1.13713 0.2 0.0
-1.14697 0.15 0.0
-1.20691 0.85 0.0
-1.20926 0.8 0.0
-1.20221 0.95 0.0
-1.19986 1 0.0
-1.20456 0.9 0.0
-1.13997 0.3 0.0
-1.14731 0.25 0.0
-1.13781 0.4 0.0
-1.13014 0.35 0.0
-1.12548 0.45 0.0
-1.14815 0.5 0.0
-1.15962 0.55 0.0
-1.14849 0.6 0.0
-1.15745 0.65 0.0
-1.16155 0.75 0.0
-1.14917 0.8 0.0
-1.14883 0.7 0.0
-1.09625 0 0.0
-1.09661 0.1 0.0
-1.09393 0.05 0.0
-1.09697 0.2 0.0
-1.08929 0.15 0.0
-1.15687 0.85 0.0
-1.14985 1 0.0
-1.15219 0.95 0.0
-1.14951 0.9 0.0
-1.09733 0.3 0.0
-1.08465 0.25 0.0
-1.09769 0.4 0.0
-1.08 0.35 0.0
-1.08661 0.45 0.0
-1.09804 0.5 0.0
-1.12082 0.55 0.0
-1.10916 0.8 0.0
-1.10629 0.7 0.0
-1.0984 0.6 0.0
-1.11616 0.65 0.0
-1.11149 0.75 0.0
-1.04604 0 0.0
-1.04623 0.05 0.0
-1.04642 0.1 0.0
-1.0468 0.2 0.0
-1.03911 0.15 0.0
-1.09948 0.9 0.0
-1.0993 0.85 0.0
-1.09984 1 0.0
-1.09966 0.95 0.0
-1.04718 0.3 0.0
-1.03449 0.25 0.0
-1.04756 0.4 0.0
-1.02986 0.35 0.0
-1.04775 0.45 0.0
-1.04794 0.5 0.0
-1.04813 0.55 0.0
-1.05911 0.8 0.0
-1.04831 0.6 0.0
-1.06376 0.7 0.0
-1.0485 0.65 0.0
-1.04888 0.75 0.0
-0.995833 0 0.0
-0.991231 0.1 0.0
-0.996033 0.05 0.0
-0.986629 0.2 0.0
-0.98893 0.15 0.0
-1.05447 0.9 0.0
-1.04926 0.85 0.0
-1.04983 1 0.0
-1.04964 0.95 0.0
-0.984328 0.25 0.0
-0.99703 0.3 0.0
-0.997429 0.4 0.0
-0.997628 0.45 0.0
-0.979726 0.35 0.0
-0.997827 0.5 0.0
-0.998027 0.55 0.0
-0.998226 0.6 0.0
-0.961416 0.475 0.0
-1.00907 0.8 0.0
-0.998426 0.65 0.0
-0.998625 0.7 0.0
-1.01138 0.75 0.0
-0.945625 0 0.0
-0.946044 0.1 0.0
-0.943334 0.05 0.0
-0.946463 0.2 0.0
-0.938752 0.15 0.0
-1.00444 0.9 0.0
-1.00675 0.85 0.0
-0.999821 1 0.0
-1.00213 0.95 0.0
-0.93417 0.25 0.0
-0.946881 0.3 0.0
-0.9473 0.4 0.0
-0.929588 0.35 0.0
-0.925005 0.45 0.0
-0.960371 0.525 0.0
-0.959325 0.575 0.0
-0.958279 0.625 0.0
-0.922714 0.5 0.0
-0.959017 0.8 0.0
-0.957233 0.675 0.0
-0.952999 0.7125 0.0
-0.948766 0.75 0.0
-0.895417 0 0.0
-0.895855 0.1 0.0
-0.893136 0.05 0.0
-0.896294 0.2 0.0
-0.888573 0.15 0.0
-0.949184 0.85 0.0
-0.954415 0.9 0.0
-0.949812 1 0.0
-0.949603 0.95 0.0
-0.884011 0.25 0.0
-0.896733 0.3 0.0
-0.874887 0.45 0.0
-0.879449 0.35 0.0
-0.897171 0.4 0.0
-0.920423 0.55 0.0
-0.918132 0.6 0.0
-0.915841 0.65 0.0
-0.872606 0.5 0.0
-0.908968 0.8 0.0
-0.91355 0.7 0.0
-0.898707 0.75 0.0
-0.845208 0 0.0
-0.845438 0.05 0.0
-0.845667 0.1 0.0
-0.845896 0.15 0.0
-0.833853 0.25 0.0
-0.846126 0.2 0.0
-0.899146 0.85 0.0
-0.904386 0.9 0.0
-0.899584 0.95 0.0
-0.899804 1 0.0
-0.838062 0.35 0.0
[...]
POINT_DATA 10839
VECTORS Velocity float
0.21 0 0.0
0.24 0 0.0
0.2275 0 0.0
0.2475 0 0.0
0.25 0 0.0
0.2475 0 0.0
0 0 0.0
0.0475 0 0.0
0.1275 0 0.0
0.09 0 0.0
0.09 0 0.0
0.1275 0 0.0
0.1875 0 0.0
0.16 0 0.0
0.195557 -2.42844e-05 0.0
0.242841 -3.30528e-05 0.0
0.215776 -2.88741e-05 0.0
0.231406 -3.25266e-05 0.0
0.248725 -3.51812e-05 0.0
0.24 0 0.0
0.24284 -3.29774e-05 0.0
0.24852 -3.38821e-05 0.0
0 0 0.0
0.062224 -4.27973e-06 0.0
0.0322271 -2.83017e-06 0.0
0.16 0 0.0
0.1875 0 0.0
0.21 0 0.0
0.2275 0 0.0
0.193592 -2.72554e-05 0.0
0.138887 -1.51898e-05 0.0
0 0 0.0
0.0475 0 0.0
0.0998415 -1.05835e-05 0.0
0.0622205 -4.32849e-06 0.0
0.0998462 -1.10551e-05 0.0
0.138891 -1.53219e-05 0.0
0.17438 -3.82729e-05 0.0
0.201606 -5.23426e-05 0.0
0.235787 -6.38173e-05 0.0
0.244085 -6.6754e-05 0.0
0.223602 -8.54988e-05 0.0
0.249751 -6.9726e-05 0.0
0.249044 -7.76738e-05 0.0
0.231404 -3.30494e-05 0.0
0.244081 -6.5964e-05 0.0
0 0 0.0
0.0361083 -5.45552e-06 0.0
0.0736128 -1.52157e-05 0.0
0.0622495 -1.66556e-05 0.0
0.17437 -3.77148e-05 0.0
0.220162 -5.22953e-05 0.0
0.201594 -5.24175e-05 0.0
0.115548 -2.26948e-05 0.0
0.146676 -3.50794e-05 0.0
0 0 0.0
0.0360873 -3.68496e-06 0.0
0.0693659 -1.19174e-05 0.0
0.0899833 -2.35765e-05 0.0
0.109391 -3.18377e-05 0.0
0.146692 -3.43961e-05 0.0
0.178902 -6.40697e-05 0.0
0.206293 -8.36558e-05 0.0
0.214501 -0.000112588 0.0
0.238527 -9.99016e-05 0.0
0.24735 -0.000104 0.0
0.229607 -0.000127048 0.0
0.226323 -8.98118e-05 0.0
0.249983 -0.000104506 0.0
0.246426 -0.000101685 0.0
0.23668 -9.57709e-05 0.0
0 0 0.0
0.032251 -6.15788e-06 0.0
0.0956969 -3.61195e-05 0.0
0.0694298 -2.72181e-05 0.0
0.178876 -6.30972e-05 0.0
0.206269 -8.42815e-05 0.0
0.127476 -4.87197e-05 0.0
0.165873 -7.97736e-05 0.0
0.152325 -5.72275e-05 0.0
0 0 0.0
0.0360793 -5.28568e-06 0.0
0.0621954 -1.64867e-05 0.0
0.0956296 -3.68194e-05 0.0
0.127525 -4.91812e-05 0.0
0.156661 -7.13281e-05 0.0
0.115601 -5.64061e-05 0.0
0.193626 -0.000117336 0.0
0.218141 -0.000148322 0.0
0.24094 -0.000135323 0.0
0.247737 -0.000140312 0.0
0.25 -0.000141832 0.0
0.234398 -0.000171585 0.0
0.229577 -0.000125283 0.0
0.247727 -0.000139997 0.0
0.240919 -0.000135074 0.0
0 0 0.0
0.0344879 -8.51369e-06 0.0
0.103121 -5.53835e-05 0.0
0.0623038 -2.75559e-05 0.0
0.189727 -9.98053e-05 0.0
0.212989 -0.000139166 0.0
0.170534 -0.000108018 0.0
0.144329 -8.0264e-05 0.0
0 0 0.0
0.0398976 -9.07812e-06 0.0
0.0997859 -5.04068e-05 0.0
0.0693207 -2.67902e-05 0.0
0.170624 -0.000108138 0.0
0.144421 -8.20002e-05 0.0
0.124377 -8.30757e-05 0.0
0.18365 -0.000136533 0.0
0.204131 -0.000163341 0.0
0.222038 -0.000192181 0.0
0.249109 -0.000185964 0.0
0.244026 -0.000181043 0.0
0.24912 -0.000185981 0.0
0.238551 -0.00021815 0.0
0.234353 -0.000170554 0.0
0.244883 -0.000195961 0.0
0 0 0.0
0.0322927 -9.00929e-06 0.0
0.0940747 -5.81745e-05 0.0
0.0652181 -3.48126e-05 0.0
0.196696 -0.000149225 0.0
0.217871 -0.000183163 0.0
0.177438 -0.000151376 0.0
0.14869 -0.000105822 0.0
0.120329 -7.41999e-05 0.0
0 0 0.0
0.0343901 -8.60767e-06 0.0
0.0716436 -3.49782e-05 0.0
0.152424 -0.000118601 0.0
0.127615 -0.000103016 0.0
0.187578 -0.000169084 0.0
0.211951 -0.000210433 0.0
0.248605 -0.000230555 0.0
0.225685 -0.000238293 0.0
0.249783 -0.000232235 0.0
0.246474 -0.000228349 0.0
0.242064 -0.000266934 0.0
0.23849 -0.000217499 0.0
0 0 0.0
0.0338752 -1.12801e-05 0.0
0.0999934 -7.75635e-05 0.0
0.0695458 -4.63017e-05 0.0
0.20626 -0.000197014 0.0
0.222405 -0.000229509 0.0
0.189975 -0.00020456 0.0
0.168254 -0.00016537 0.0
0.143003 -0.000127007 0.0
0.124194 -9.38713e-05 0.0
0.0970835 -6.31549e-05 0.0
0 0 0.0
0.03602 -1.09498e-05 0.0
0.0673141 -3.74616e-05 0.0
0.130335 -0.000124337 0.0
0.168482 -0.000166184 0.0
0.199472 -0.000216628 0.0
0.218378 -0.000254071 0.0
0.241992 -0.000267518 0.0
0.25 -0.000279245 0.0
0.247989 -0.000275982 0.0
0.229081 -0.000286524 0.0
0.244937 -0.000317488 0.0
0.248741 -0.000292936 0.0
0.234445 -0.000273972 0.0
0 0 0.0
0.0362336 -1.45301e-05 0.0
0.122659 -0.000127272 0.0
0.0712299 -5.47226e-05 0.0
0.20835 -0.000240605 0.0
0.225126 -0.000286095 0.0
0.198048 -0.000249619 0.0
0.177725 -0.000206881 0.0
0.146526 -0.000152767 0.0
0.119132 -0.000106914 0.0
0.0970507 -7.1584e-05 0.0
0 0 0.0
0.0349377 -1.22559e-05 0.0
0.0672768 -4.21533e-05 0.0
0.152301 -0.000173535 0.0
0.178017 -0.000211843 0.0
0.210116 -0.000267812 0.0
0.244858 -0.000317299 0.0
0.24942 -0.000325976 0.0
0.232225 -0.000336658 0.0
0.244197 -0.000360881 0.0
0.249988 -0.000384941 0.0
0.249132 -0.000342436 0.0
0.235913 -0.000327646 0.0
0.212963 -0.000326587 0.0
0 0 0.0
0.0371626 -1.7108e-05 0.0
0.14111 -0.000176938 0.0
0.0999576 -0.000107175 0.0
0.0666004 -5.33261e-05 0.0
0.213629 -0.000292311 0.0
0.186608 -0.000254513 0.0
0.165085 -0.000207285 0.0
0.12224 -0.000128054 0.0
0.0928655 -7.84577e-05 0.0
0 0 0.0
0.0349078 -1.368e-05 0.0
0.0642255 -4.47573e-05 0.0
0.165597 -0.000221584 0.0
0.186967 -0.000260342 0.0
0.158123 -0.000231686 0.0
0.247091 -0.000370394 0.0
0.248691 -0.000425261 0.0
0.231051 -0.00037773 0.0
0.240525 -0.000403001 0.0
0.248757 -0.000425023 0.0
0.240203 -0.000376566 0.0
0.229257 -0.000369788 0.0
0.199181 -0.000319635 0.0
0.218633 -0.000381747 0.0
0 0 0.0
0.0346504 -1.67876e-05 0.0
0.126169 -0.000171889 0.0
0.0681789 -6.02274e-05 0.0
0.0988194 -0.000116655 0.0
0.208083 -0.000333784 0.0
0.18976 -0.000291196 0.0
0.168126 -0.000241896 0.0
0.14062 -0.000175583 0.0
0.0954085 -9.32404e-05 0.0
0 0 0.0
0.0332516 -1.39979e-05 0.0
0.0660549 -5.32633e-05 0.0
0.183223 -0.000301934 0.0
0.159262 -0.000259114 0.0
0.244898 -0.000438182 0.0
0.24966 -0.000480778 0.0
0.235961 -0.000441526 0.0
0.244858 -0.000466528 0.0
0.249378 -0.000479817 0.0
0.238621 -0.000443421 0.0
0.218421 -0.000400758 0.0
0.203103 -0.000372544 0.0
0.22337 -0.000436137 0.0
0 0 0.0
0.0478072 -3.34488e-05 0.0
0.12792 -0.000195836 0.0
0.0904237 -0.000109584 0.0
0.202609 -0.000358408 0.0
0.177968 -0.000295052 0.0
0.147888 -0.000221839 0.0
0.11872 -0.000145844 0.0
0.0780264 -7.83737e-05 0.0
0 0 0.0
0.0342296 -1.64875e-05 0.0
0.187831 -0.000357169 0.0
0.1604 -0.000288158 0.0
0.246452 -0.00050011 0.0
0.249999 -0.000538772 0.0
0.240139 -0.000509237 0.0
0.247576 -0.000560901 0.0
0.23986 -0.000508037 0.0
0.227293 -0.000470358 0.0
0.20973 -0.000418622 0.0
0.227723 -0.000494649 0.0
0.210288 -0.000437065 0.0
0 0 0.0
0.0478707 -3.73224e-05 0.0
0.128014 -0.000218487 0.0
0.0905054 -0.000120451 0.0
0.187172 -0.000354654 0.0
0.15962 -0.000278435 0.0
0.0471963 -3.28643e-05 0.0
0.127085 -0.000193137 0.0
0.0895891 -0.000107437 0.0
0 0 0.0
0.187906 -0.000401177 0.0
0.160489 -0.000322382 0.0
0.24742 -0.000566682 0.0
0.249998 -0.000606455 0.0
0.240171 -0.000573788 0.0
0.247593 -0.000630206 0.0
0.227247 -0.000528855 0.0
0.239827 -0.000571347 0.0
0.187097 -0.000397927 0.0
0.209668 -0.000470364 0.0
0.227763 -0.000542793 0.0
0.210353 -0.000491169 0.0
0 0 0.0
0.0479404 -4.08526e-05 0.0
0.128119 -0.0002428 0.0
0.090616 -0.000134956 0.0
0.126991 -0.00021638 0.0
0.159534 -0.000312158 0.0
0.0471369 -3.64701e-05 0.0
0.0894998 -0.000119427 0.0
0 0 0.0
0.187992 -0.000447991 0.0
0.16059 -0.000359323 0.0
0.247402 -0.000635349 0.0
0.249997 -0.000678934 0.0
0.227806 -0.000595386 0.0
0.240221 -0.000670895 0.0
0.247611 -0.000705181 0.0
0.227202 -0.000578317 0.0
0.239791 -0.000639269 0.0
0.187034 -0.000431184 0.0
0.209598 -0.000525584 0.0
0.210426 -0.000549186 0.0
0 0 0.0
0.0480223 -4.5305e-05 0.0
0.128256 -0.000272867 0.0
0.0907288 -0.000148795 0.0
0.126903 -0.000236363 0.0
0.159437 -0.000347443 0.0
0.0470647 -4.05898e-05 0.0
0.089401 -0.000131986 0.0
0 0 0.0
0.160703 -0.000398632 0.0
0.188113 -0.000510998 0.0
0.247382 -0.00070898 0.0
0.249996 -0.000756872 0.0
0.240254 -0.000732972 0.0
0.227889 -0.000689158 0.0
0.247631 -0.000784913 0.0
0.239749 -0.000711534 0.0
0.227154 -0.000632334 0.0
0.186942 -0.000479189 0.0
0.20952 -0.000584154 0.0
0.210507 -0.000612405 0.0
0 0 0.0
0.0481046 -4.98167e-05 0.0
0.128369 -0.000297293 0.0
0.0908531 -0.000163678 0.0
0.126789 -0.000261825 0.0
0.159328 -0.000385722 0.0
0 0 0.0
0.0892906 -0.000146394 0.0
0.0469916 -4.47587e-05 0.0
0.188224 -0.000569222 0.0
0.160829 -0.000442031 0.0
0.227947 -0.000752429 0.0
0.247359 -0.000788883 0.0
0.249994 -0.00084155 0.0
0.247648 -0.000852539 0.0
0.24029 -0.000798223 0.0
0.239703 -0.000789767 0.0
0.227089 -0.000702157 0.0
0.186812 -0.000543878 0.0
0.209433 -0.00064813 0.0
0.210599 -0.000680488 0.0
0 0 0.0
0.0481974 -5.45006e-05 0.0
0.0909764 -0.00017762 0.0
0.128515 -0.000327517 0.0
0.126643 -0.00029401 0.0
0.159208 -0.000427094 0.0
0 0 0.0
0.0469036 -4.95745e-05 0.0
0.0891823 -0.000159987 0.0
0.188317 -0.000614949 0.0
0.160971 -0.000489577 0.0
0.228007 -0.00082096 0.0
0.240359 -0.000924561 0.0
0.247332 -0.000875573 0.0
0.249992 -0.000933011 0.0
0.247666 -0.000924056 0.0
0.239651 -0.00087422 0.0
0.227016 -0.000777648 0.0
0.186726 -0.000586685 0.0
0.209336 -0.000715924 0.0
0.210701 -0.000756162 0.0
0 0 0.0
0.0483 -5.92652e-05 0.0
0.128704 -0.000366915 0.0
0.0911426 -0.000197104 0.0
0.126523 -0.000320573 0.0
0.159075 -0.000472036 0.0
0.0468151 -5.43862e-05 0.0
0 0 0.0
0.0890361 -0.00017894 0.0
0.161129 -0.000541989 0.0
0.188487 -0.000699004 0.0
0.228122 -0.000945275 0.0
0.240416 -0.0010281 0.0
0.24769 -0.00102561 0.0
0.247287 -0.00101177 0.0
0.249987 -0.00103477 0.0
0.239592 -0.0009677 0.0
0.226905 -0.000886937 0.0
0.186568 -0.000662374 0.0
0.209228 -0.00079035 0.0
0.210815 -0.000839587 0.0
0 0 0.0
0.0484105 -6.40878e-05 0.0
0.0913097 -0.000214598 0.0
0.161306 -0.000598441 0.0
0.128861 -0.000397667 0.0
0.126369 -0.000354606 0.0
0.158959 -0.000510839 0.0
0.046711 -6.0992e-05 0.0
0 0 0.0
0.0889018 -0.0001969 0.0
0.210921 -0.000918379 0.0
0.188604 -0.000757667 0.0
0.240464 -0.00111683 0.0
0.228216 -0.00105362 0.0
0.247729 -0.00118775 0.0
0.249981 -0.0011444 0.0
0.247258 -0.00109289 0.0
0.239525 -0.00106666 0.0
0.226828 -0.000960206 0.0
0.186462 -0.000711847 0.0
0.158769 -0.00057451 0.0
0.20911 -0.000868759 0.0
0 0 0.0
0.0914774 -0.000233409 0.0
0.0485399 -7.01614e-05 0.0
0.161463 -0.00065181 0.0
0.129095 -0.000447228 0.0
0.1262 -0.000392572 0.0
0 0 0.0
0.0465952 -6.82624e-05 0.0
0.0887225 -0.000221366 0.0
0.211039 -0.00100412 0.0
0.188817 -0.000867724 0.0
0.240515 -0.00121335 0.0
0.22832 -0.00117356 0.0
0.247747 -0.00128922 0.0
0.24997 -0.00126603 0.0
0.247227 -0.00118196 0.0
0.15863 -0.000617651 0.0
0.208999 -0.000939527 0.0
0.239449 -0.0011726 0.0
0.226744 -0.00103891 0.0
0.186311 -0.000782195 0.0
0 0 0.0
0.0486663 -7.56856e-05 0.0
0.0916794 -0.000256256 0.0
0.161682 -0.000724869 0.0
0.129329 -0.000496541 0.0
0.0885406 -0.000245497 0.0
0.125987 -0.000440031 0.0
0 0 0.0
0.04646 -7.69993e-05 0.0
0.21119 -0.00111988 0.0
0.189014 -0.000970047 0.0
0.240583 -0.00134844 0.0
0.228434 -0.00130942 0.0
0.247768 -0.00139871 0.0
0.249958 -0.00140068 0.0
0.247154 -0.00135775 0.0
0.158446 -0.000676578 0.0
0.239364 -0.00128897 0.0
0.20888 -0.00101174 0.0
0.226591 -0.00117689 0.0
0.186102 -0.000877481 0.0
0 0 0.0
0.0919308 -0.000287262 0.0
0.0488107 -8.32396e-05 0.0
0.16198 -0.000829555 0.0
0.129589 -0.000555176 0.0
0.0883627 -0.000269288 0.0
0.125783 -0.000485574 0.0
0 0 0.0
0.0463143 -8.65956e-05 0.0
0.189232 -0.00109001 0.0
0.211359 -0.00125407 0.0
0.240655 -0.00150346 0.0
0.247793 -0.00154925 0.0
0.228557 -0.00146338 0.0
0.249937 -0.00154558 0.0
0.247093 -0.00149787 0.0
0.239265 -0.00141157 0.0
0.249485 -0.00167405 0.0
0.158244 -0.000737343 0.0
0.226458 -0.0012866 0.0
0.208675 -0.00113161 0.0
0.185965 -0.000934946 0.0
0 0 0.0
0.0921656 -0.000319409 0.0
0.0489835 -9.31306e-05 0.0
0.162206 -0.000915043 0.0
0.129884 -0.000626475 0.0
0.0881479 -0.000296613 0.0
0.125596 -0.000524593 0.0
0 0 0.0
0.0461624 -9.614e-05 0.0
0.189477 -0.00122967 0.0
0.211545 -0.00140974 0.0
0.240724 -0.00167405 0.0
0.22869 -0.00164301 0.0
0.247818 -0.00180577 0.0
0.249097 -0.00164418 0.0
0.243727 -0.00156824 0.0
0.233379 -0.001451 0.0
0.249886 -0.00179743 0.0
0.158028 -0.000797546 0.0
0.218055 -0.00130012 0.0
0.203286 -0.00117134 0.0
0.185719 -0.00103024 0.0
0 0 0.0
0.0924564 -0.000364174 0.0
0.0491661 -0.000104325 0.0
0.162518 -0.00104128 0.0
0.13022 -0.00071581 0.0
0.125326 -0.000575677 0.0
0.0879145 -0.000323925 0.0
0 0 0.0
0.0459784 -0.000105689 0.0
0.189751 -0.00139646 0.0
0.211748 -0.00159139 0.0
0.247822 -0.00200523 0.0
0.228829 -0.00184749 0.0
0.240801 -0.00187265 0.0
0.246969 -0.00173667 0.0
0.239072 -0.00162758 0.0
0.226201 -0.00147807 0.0
0.249831 -0.00198596 0.0
0.157793 -0.000855642 0.0
0.208363 -0.00129359 0.0
0.185498 -0.00110589 0.0
0 0 0.0
0.0493677 -0.000118936 0.0
0.0927909 -0.000422371 0.0
0.130544 -0.000808809 0.0
0.190052 -0.00159266 0.0
0.162871 -0.00119471 0.0
0.125073 -0.000615693 0.0
0.0876637 -0.000349224 0.0
0.0457847 -0.000115457 0.0
0 0 0.0
0.228951 -0.00204181 0.0
0.21197 -0.00180681 0.0
0.247821 -0.00218086 0.0
0.240869 -0.00210075 0.0
0.226015 -0.00159723 0.0
0.246861 -0.00190517 0.0
0.238919 -0.00177313 0.0
0.249761 -0.00219427 0.0
0.185261 -0.00117342 0.0
0.157492 -0.000912294 0.0
0.20808 -0.00141564 0.0
0 0 0.0
0.0496135 -0.00014157 0.0
0.0932257 -0.000502658 0.0
0.130975 -0.0009431 0.0
0.190299 -0.00177063 0.0
0.163352 -0.00142977 0.0
0.124807 -0.000647096 0.0
0.0873751 -0.000370511 0.0
0.0455808 -0.000122807 0.0
0 0 0.0
0.124528 -0.000667749 0.0
0.229073 -0.00225196 0.0
0.212284 -0.00214734 0.0
0.240955 -0.00247547 0.0
0.247808 -0.00236917 0.0
0.22572 -0.00176088 0.0
0.238743 -0.00192465 0.0
0.246731 -0.00208994 0.0
0.249658 -0.00242593 0.0
0.184998 -0.00123244 0.0
0.157217 -0.000951262 0.0
0.207829 -0.00150705 0.0
0 0 0.0
0.0499043 -0.000167279 0.0
0.0936938 -0.000597528 0.0
0.131471 -0.00111065 0.0
0.190661 -0.00203782 0.0
0.163813 -0.00166982 0.0
0.0453616 -0.000130501 0.0
0.0870974 -0.000385384 0.0
0 0 0.0
0.124284 -0.000671212 0.0
0.229224 -0.00255795 0.0
0.212545 -0.00245921 0.0
0.240999 -0.00278535 0.0
0.247768 -0.00264647 0.0
0.225499 -0.00186517 0.0
0.238532 -0.00208474 0.0
0.249527 -0.00268286 0.0
0.246484 -0.00238474 0.0
0.184778 -0.00126627 0.0
0.156922 -0.000972141 0.0
0.207544 -0.00158747 0.0
0 0 0.0
0.0502508 -0.00020144 0.0
0.0942474 -0.000712859 0.0
0.132135 -0.0013464 0.0
0.191154 -0.00244504 0.0
0.212819 -0.00282557 0.0
0.164328 -0.00195908 0.0
0.0451529 -0.000132909 0.0
0.0868201 -0.000390343 0.0
0 0 0.0
0.123992 -0.00066235 0.0
0.229421 -0.00303398 0.0
0.241022 -0.00306993 0.0
0.247701 -0.00295708 0.0
0.249396 -0.00289754 0.0
0.225256 -0.0019626 0.0
0.238269 -0.0022593 0.0
0.246257 -0.00260869 0.0
0.156608 -0.000974045 0.0
0.184461 -0.0013013 0.0
0.207214 -0.00166046 0.0
0 0 0.0
0.0506947 -0.000244871 0.0
0.0949082 -0.000857544 0.0
0.132816 -0.00160074 0.0
0.191481 -0.00273829 0.0
0.213101 -0.00324012 0.0
0.164911 -0.00229986 0.0
0.0449319 -0.000133726 0.0
0.086548 -0.000384202 0.0
0 0 0.0
0.156341 -0.000955292 0.0
0.0862939 -0.000363574 0.0
0.123655 -0.000629705 0.0
0.229556 -0.00347139 0.0
0.241024 -0.00337199 0.0
0.247536 -0.00347552 0.0
0.249244 -0.00312287 0.0
0.246049 -0.00280063 0.0
0.22491 -0.00208202 0.0
0.237826 -0.00251433 0.0
0.184009 -0.0013182 0.0
0.206896 -0.00171982 0.0
0.229663 -0.00385772 0.0
0 0 0.0
0.0512022 -0.000294978 0.0
0.13361 -0.00190178 0.0
0.0956883 -0.00103011 0.0
0.213398 -0.00373106 0.0
0.19207 -0.00329888 0.0
0.165564 -0.00269785 0.0
0.0447116 -0.000126965 0.0
0 0 0.0
0.183696 -0.00131915 0.0
0.155986 -0.00091985 0.0
0.123368 -0.000586834 0.0
0.0444997 -0.000124521 0.0
0.0860562 -0.000335268 0.0
0.241008 -0.00380716 0.0
0.247402 -0.00379499 0.0
0.248982 -0.00345782 0.0
0.248748 -0.00373893 0.0
0.245797 -0.00300009 0.0
0.224495 -0.00220739 0.0
0.23741 -0.00271257 0.0
0.206531 -0.00176132 0.0
0.229741 -0.00429007 0.0
0.051781 -0.000352082 0.0
0 0 0.0
0.134377 -0.00219115 0.0
0.0966067 -0.00122566 0.0
0.213697 -0.00428498 0.0
0.192452 -0.00369027 0.0
0.166304 -0.00315956 0.0
0 0 0.0
0.183251 -0.0012979 0.0
0.155533 -0.000851397 0.0
0.123134 -0.000528641 0.0
0.0443276 -0.000115541 0.0
0.0858445 -0.000299174 0.0
0.240909 -0.00451728 0.0
0.247243 -0.0041338 0.0
0.248463 -0.00403314 0.0
0.245225 -0.00340833 0.0
0.224014 -0.0023273 0.0
0.236937 -0.00292023 0.0
0.205887 -0.00182388 0.0
0.229836 -0.00488577 0.0
0 0 0.0
0.0525052 -0.000422135 0.0
0.13541 -0.00257921 0.0
0.0975825 -0.00143087 0.0
0.167133 -0.00367916 0.0
0.214002 -0.00491905 0.0
0.193152 -0.00442138 0.0
0 0 0.0
0 0 0.0
0.182736 -0.00127032 0.0
0.155132 -0.000781693 0.0
0.122873 -0.000457959 0.0
0.0856719 -0.000257871 0.0
0.0441674 -0.000104161 0.0
0.240778 -0.00509755 0.0
0.246965 -0.00463011 0.0
0.236482 -0.00310212 0.0
0.24802 -0.00446811 0.0
0.244706 -0.00373663 0.0
0.223439 -0.0024569 0.0
0.20529 -0.00186402 0.0
0.240631 -0.00562015 0.0
0.22988 -0.00555567 0.0
0.0533673 -0.000501665 0.0
0.098834 -0.00168223 0.0
0.1366 -0.00302279 0.0
0.16788 -0.0041559 0.0
0.214316 -0.00562495 0.0
0.193599 -0.00493486 0.0
0 0 0.0
0 0 0.0
0.154795 -0.000714084 0.0
0.182025 -0.00121733 0.0
0.0855487 -0.000213714 0.0
0.122591 -0.000369701 0.0
0.044018 -9.3371e-05 0.0
0.246445 -0.00542608 0.0
0.247467 -0.00495678 0.0
0.204619 -0.0019023 0.0
0.235966 -0.00328806 0.0
0.24425 -0.00401457 0.0
0.22252 -0.00263877 0.0
0.240446 -0.00616366 0.0
0.229912 -0.00658441 0.0
0.214625 -0.00642152 0.0
0.0544371 -0.000599358 0.0
0.100287 -0.00197724 0.0
0.138189 -0.00359711 0.0
0.168916 -0.00479914 0.0
0.194426 -0.00587446 0.0
0 0 0.0
0 0 0.0
0.154272 -0.00061733 0.0
0.181374 -0.00118451 0.0
0.0854501 -0.000163048 0.0
0.122374 -0.000295862 0.0
0.0439067 -7.99042e-05 0.0
0.243721 -0.00431468 0.0
0.246816 -0.00548419 0.0
0.245951 -0.00607778 0.0
0.20385 -0.00194643 0.0
0.235223 -0.00355 0.0
0.221698 -0.00280354 0.0
0.18067 -0.00115876 0.0
0.239998 -0.00725709 0.0
0 0 0.0
0.229853 -0.00746688 0.0
0.195152 -0.00673769 0.0
0.21493 -0.00729877 0.0
0.0555816 -0.000700564 0.0
0.139554 -0.00408787 0.0
0.102156 -0.00235338 0.0
0.170318 -0.00570006 0.0
0 0 0.0
0 0 0.0
0 0 0.0
0 0 0.0
0 0 0.0
0.0438292 -6.87446e-05 0.0
0.122186 -0.000232229 0.0
0.153813 -0.000552038 0.0
0.0853803 -0.000131481 0.0
0.242931 -0.00472211 0.0
0.246034 -0.00607661 0.0
0.245376 -0.00678995 0.0
0.220935 -0.00293314 0.0
0.202974 -0.00200428 0.0
0.23397 -0.0039593 0.0
0.202156 -0.00206518 0.0
0.180088 -0.00114779 0.0
0.239555 -0.00815398 0.0
0.229759 -0.00841972 0.0
0 0 0.0
9.36032e-05 -3.54267e-05 0.0
0 0 0.0
-0.000400662 0.00249728 0.0
0.215243 -0.00828819 0.0
0.195748 -0.0074383 0.0
0.0570539 -0.000835144 0.0
0.141336 -0.00471992 0.0
0.104127 -0.00274757 0.0
0.171664 -0.00655431 0.0
0 0 0.0
0 0 0.0
0 0 0.0
-0.000305836 0.00141475 0.0
-4.27897e-05 -7.33321e-05 0.0
-7.34366e-06 -1.2873e-05 0.0
0 0 0.0
0.0437478 -6.35559e-05 0.0
0.12203 -0.000189153 0.0
0.153337 -0.000507304 0.0
0.0853369 -0.000105233 0.0
0.242015 -0.0051851 0.0
0.245122 -0.00672666 0.0
0.244675 -0.00757032 0.0
0.220086 -0.0030927 0.0
0.233128 -0.00423741 0.0
0.201258 -0.00213829 0.0
0.179061 -0.00116749 0.0
0.239034 -0.00912677 0.0
0.232417 -0.00935313 0.0
0.223147 -0.0093291 0.0
0 0 0.0
9.33397e-05 2.25909e-05 0.0
0 0 0.0
0 0 0.0
-0.00140329 0.00548716 0.0
-0.00138755 0.00369506 0.0
0.211205 -0.0090764 0.0
0.196584 -0.00847571 0.0
0.106162 -0.00315978 0.0
0.0586199 -0.00099087 0.0
0.14335 -0.00545183 0.0
0.173142 -0.00751499 0.0
0 0 0.0
-0.000534297 0.000768627 0.0
-0.000969441 0.00198721 0.0
-0.000366355 0.000335264 0.0
-0.000362987 0.000313452 0.0
0 0 0.0
0.0436801 -6.16657e-05 0.0
0.121866 -0.000164321 0.0
0.152848 -0.000482532 0.0
0.0853112 -9.76865e-05 0.0
0.24095 -0.00569168 0.0
0.244064 -0.00743437 0.0
0.243843 -0.00842488 0.0
0.218504 -0.00339536 0.0
0.232196 -0.00452301 0.0
0.200098 -0.00226843 0.0
0.152359 -0.000509752 0.0
0.178165 -0.00122983 0.0
0.238528 -0.00996465 0.0
0.229452 -0.0102415 0.0
0.215735 -0.0102438 0.0
0 0 0.0
-0.000261331 0.000169402 0.0
0 0 0.0
0 0 0.0
0 0 0.0
0 0 0.0
-0.00254537 0.00392034 0.0
-0.000377503 0.00463694 0.0
-0.0014078 0.00700986 0.0
-0.0033044 0.00914743 0.0
-0.00284928 0.00636824 0.0
0 0 0.0
-4.18194e-05 0.00656322 0.0
0.197698 -0.00997932 0.0
0.174444 -0.0084061 0.0
0 0 0.0
0.060664 -0.00120841 0.0
0.108736 -0.00371283 0.0
0.145999 -0.00649657 0.0
0 0 0.0
0 0 0.0
-0.00159025 0.00196697 0.0
-0.0012727 0.00114006 0.0