# vtk DataFile Version 3.0
Mesh NS-CD Problem
ASCII
DATASET UNSTRUCTURED_GRID
POINTS 10839 float
-2 0.3 0.0
-2 0.4 0.0
-2 0.35 0.0
-2 0.45 0.0
-2 0.5 0.0
-2 0.55 0.0
-2 0 0.0
-2 0.05 0.0
-2 0.85 0.0
-2 0.9 0.0
-2 0.1 0.0
-2 0.15 0.0
-2 0.25 0.0
-2 0.2 0.0
-1.96653 0.266667 0.0
-1.96524 0.415385 0.0
-1.96485 0.315 0.0
-1.96348 0.363636 0.0
-1.96414 0.464286 0.0
-2 0.6 0.0
-1.96538 0.584615 0.0
-1.96538 0.538462 0.0
-1.94979 0 0.0
-1.96653 0.0666666 0.0
-1.93306 0.0333333 0.0
-2 0.8 0.0
-2 0.75 0.0
-2 0.7 0.0
-2 0.65 0.0
-1.96249 0.7375 0.0
-1.96666 0.833333 0.0
-2 1 0.0
-2 0.95 0.0
-1.96249 0.8875 0.0
-1.96666 0.933333 0.0
-1.96234 0.1125 0.0
-1.96653 0.166667 0.0
-1.93724 0.225 0.0
-1.92971 0.28 0.0
-1.93048 0.380769 0.0
-1.93048 0.423077 0.0
-1.89958 0.3375 0.0
-1.9292 0.484203 0.0
-1.92117 0.530907 0.0
-1.96363 0.636364 0.0
-1.93076 0.576923 0.0
-1.89958 0 0.0
-1.88703 0.0375 0.0
-1.90963 0.08 0.0
-1.86611 0.0666666 0.0
-1.93749 0.775 0.0
-1.93635 0.672727 0.0
-1.92999 0.72 0.0
-1.93332 0.866667 0.0
-1.92856 0.821429 0.0
-1.94999 1 0.0
-1.92499 0.9625 0.0
-1.92499 0.925 0.0
-1.89998 0.9 0.0
-1.89958 0.125 0.0
-1.92827 0.178571 0.0
-1.89958 0.233333 0.0
-1.89045 0.290909 0.0
-1.86096 0.311538 0.0
-1.89241 0.392857 0.0
-1.89334 0.448489 0.0
-1.85655 0.357143 0.0
-1.89614 0.653846 0.0
-1.89427 0.504121 0.0
-1.8952 0.559753 0.0
-1.89614 0.615385 0.0
-1.84937 0 0.0
-1.83264 0.0333333 0.0
-1.85655 0.107143 0.0
-1.81172 0.075 0.0
-1.89998 0.766667 0.0
-1.89089 0.709091 0.0
-1.87498 0.85 0.0
-1.85998 0.79 0.0
-1.88748 0.8125 0.0
-1.89998 1 0.0
-1.88748 0.9625 0.0
-1.86664 0.933333 0.0
-1.85712 0.892857 0.0
-1.87448 0.15 0.0
-1.86611 0.194444 0.0
-1.83264 0.133333 0.0
-1.83264 0.2625 0.0
-1.82068 0.321429 0.0
-1.85664 0.404762 0.0
-1.85674 0.452381 0.0
-1.85683 0.5 0.0
-1.81184 0.375 0.0
-1.85712 0.642857 0.0
-1.85693 0.547619 0.0
-1.85702 0.595238 0.0
-1.79917 0 0.0
-1.78482 0.0357143 0.0
-1.79917 0.116667 0.0
-1.76569 0.0666666 0.0
-1.85452 0.745455 0.0
-1.82689 0.692308 0.0
-1.81815 0.781818 0.0
-1.82497 0.825 0.0
-1.84997 1 0.0
-1.8333 0.958333 0.0
-1.81247 0.8875 0.0
-1.81247 0.925 0.0
-1.81742 0.218182 0.0
-1.82427 0.175 0.0
-1.77634 0.145455 0.0
-1.79144 0.242308 0.0
-1.78482 0.285714 0.0
-1.77469 0.332653 0.0
-1.81215 0.529762 0.0
-1.81194 0.422619 0.0
-1.81203 0.470238 0.0
-1.76714 0.392857 0.0
-1.81234 0.625 0.0
-1.79732 0.571429 0.0
-1.74896 0 0.0
-1.73222 0.0333333 0.0
-1.75398 0.105 0.0
-1.71883 0.07 0.0
-1.79227 0.730769 0.0
-1.78007 0.679121 0.0
-1.75765 0.769231 0.0
-1.78178 0.818182 0.0
-1.78996 0.86 0.0
-1.79996 1 0.0
-1.78568 0.964286 0.0
-1.76663 0.922222 0.0
-1.76569 0.1875 0.0
-1.73222 0.15 0.0
-1.74896 0.25 0.0
-1.73714 0.304762 0.0
-1.76743 0.537202 0.0
-1.72869 0.343878 0.0
-1.76732 0.485119 0.0
-1.76723 0.440476 0.0
-1.72243 0.410714 0.0
-1.76757 0.607143 0.0
-1.69875 0 0.0
-1.68369 0.035 0.0
-1.69875 0.1125 0.0
-1.66528 0.075 0.0
-1.74341 0.708974 0.0
-1.73324 0.665934 0.0
-1.70441 0.74478 0.0
-1.71423 0.785714 0.0
-1.72303 0.826923 0.0
-1.74541 0.854545 0.0
-1.74541 0.890909 0.0
-1.74996 1 0.0
-1.73745 0.9625 0.0
-1.71359 0.927273 0.0
-1.68716 0.153846 0.0
-1.7131 0.214286 0.0
-1.70725 0.275 0.0
-1.69712 0.321939 0.0
-1.72279 0.589286 0.0
-1.72261 0.5 0.0
-1.7227 0.544643 0.0
-1.6827 0.355102 0.0
-1.67773 0.428571 0.0
-1.70763 0.464286 0.0
-1.70369 0.62449 0.0
-1.64854 0 0.0
-1.63181 0.0375 0.0
-1.64137 0.142857 0.0
-1.61764 0.0769231 0.0
-1.69458 0.703846 0.0
-1.67471 0.657437 0.0
-1.66143 0.727637 0.0
-1.67125 0.768571 0.0
-1.67851 0.821429 0.0
-1.68841 0.861538 0.0
-1.70904 0.890909 0.0
-1.69995 1 0.0
-1.68176 0.963636 0.0
-1.67267 0.927273 0.0
-1.65427 0.187143 0.0
-1.66718 0.231429 0.0
-1.66554 0.3 0.0
-1.67802 0.571429 0.0
-1.67792 0.523809 0.0
-1.6367 0.366327 0.0
-1.63682 0.423469 0.0
-1.62568 0.502976 0.0
-1.6629 0.470238 0.0
-1.65254 0.618367 0.0
-1.6059 0.307143 0.0
-1.59833 0 0.0
-1.58288 0.0384615 0.0
-1.60563 0.169643 0.0
-1.58179 0.112271 0.0
-1.56964 0.0714286 0.0
-1.64574 0.690385 0.0
-1.62827 0.751429 0.0
-1.63371 0.791071 0.0
-1.64279 0.857143 0.0
-1.65378 0.896154 0.0
-1.64994 1 0.0
-1.6363 0.963636 0.0
-1.61916 0.930769 0.0
-1.61345 0.209107 0.0
-1.62126 0.248571 0.0
-1.56989 0.196429 0.0
-1.63324 0.553571 0.0
-1.58846 0.535714 0.0
-1.59408 0.361905 0.0
-1.59161 0.402211 0.0
-1.58832 0.464286 0.0
-1.61504 0.598581 0.0
-1.59683 0.64359 0.0
-1.57899 0.274107 0.0
-1.56176 0.322381 0.0
-1.54812 0 0.0
-1.53378 0.0357143 0.0
-1.54593 0.147619 0.0
-1.53385 0.0732143 0.0
-1.53393 0.110714 0.0
-1.58522 0.704286 0.0
-1.58709 0.745 0.0
-1.58896 0.785714 0.0
-1.60695 0.830357 0.0
-1.60707 0.892857 0.0
-1.59993 1 0.0
-1.58454 0.965385 0.0
-1.57135 0.928571 0.0
-1.55209 0.241071 0.0
-1.5291 0.198214 0.0
-1.56936 0.570918 0.0
-1.54369 0.517857 0.0
-1.5464 0.380952 0.0
-1.54564 0.427721 0.0
-1.54488 0.47449 0.0
-1.55026 0.606122 0.0
-1.54222 0.677143 0.0
-1.52943 0.282857 0.0
-1.52143 0.33619 0.0
-1.49792 0 0.0
-1.49802 0.05 0.0
-1.49822 0.15 0.0
-1.49312 0.1 0.0
-1.5423 0.717143 0.0
-1.54419 0.767857 0.0
-1.54727 0.819048 0.0
-1.57122 0.861905 0.0
-1.53553 0.914286 0.0
-1.54992 1 0.0
-1.53563 0.964286 0.0
-1.49842 0.25 0.0
-1.48831 0.2 0.0
-1.5214 0.558929 0.0
-1.49891 0.5 0.0
-1.49871 0.4 0.0
-1.47631 0.45 0.0
-1.49911 0.6 0.0
-1.49921 0.65 0.0
-1.49931 0.7 0.0
-1.48111 0.35 0.0
-1.48351 0.3 0.0
-1.44771 0 0.0
-1.44782 0.05 0.0
-1.44804 0.15 0.0
-1.44793 0.1 0.0
-1.49941 0.75 0.0
-1.49951 0.8 0.0
-1.49981 0.95 0.0
-1.49961 0.85 0.0
-1.49971 0.9 0.0
-1.49991 1 0.0
-1.44826 0.25 0.0
-1.43815 0.2 0.0
-1.47151 0.55 0.0
-1.44881 0.5 0.0
-1.44859 0.4 0.0
-1.42619 0.45 0.0
-1.44913 0.65 0.0
-1.44902 0.6 0.0
-1.44935 0.75 0.0
-1.44924 0.7 0.0
-1.43972 0.35 0.0
-1.43336 0.3 0.0
-1.3975 0 0.0
-1.39762 0.05 0.0
-1.39786 0.15 0.0
-1.39274 0.1 0.0
-1.44957 0.85 0.0
-1.44946 0.8 0.0
-1.4523 0.95 0.0
-1.44968 0.9 0.0
-1.4499 1 0.0
-1.3981 0.25 0.0
-1.38798 0.2 0.0
-1.42141 0.55 0.0
-1.3987 0.5 0.0
-1.39834 0.35 0.0
-1.37845 0.4 0.0
-1.37607 0.45 0.0
-1.40784 0.65 0.0
-1.39894 0.6 0.0
-1.41185 0.75 0.0
-1.39918 0.7 0.0
-1.38322 0.3 0.0
-1.34729 0 0.0
-1.34492 0.05 0.0
-1.34018 0.15 0.0
-1.34255 0.1 0.0
-1.40707 0.85 0.0
-1.39941 0.8 0.0
-1.39977 0.95 0.0
-1.39965 0.9 0.0
-1.39989 1 0.0
-1.33781 0.2 0.0
-1.33544 0.25 0.0
-1.37131 0.55 0.0
-1.34859 0.5 0.0
-1.33833 0.4 0.0
-1.3307 0.35 0.0
-1.32595 0.45 0.0
-1.34885 0.6 0.0
-1.36655 0.65 0.0
-1.36179 0.75 0.0
-1.34911 0.7 0.0
-1.33307 0.3 0.0
-1.29708 0 0.0
-1.29722 0.05 0.0
-1.2975 0.15 0.0
-1.29236 0.1 0.0
-1.35703 0.85 0.0
-1.34937 0.8 0.0
-1.34988 1 0.0
-1.34962 0.9 0.0
-1.35226 0.95 0.0
-1.28528 0.25 0.0
-1.28764 0.2 0.0
-1.28931 0.35 0.0
-1.32121 0.55 0.0
-1.29848 0.5 0.0
-1.28709 0.45 0.0
-1.2982 0.4 0.0
-1.29876 0.6 0.0
-1.31647 0.65 0.0
-1.29918 0.75 0.0
-1.29904 0.7 0.0
-1.28292 0.3 0.0
-1.24687 0 0.0
-1.24702 0.05 0.0
-1.24717 0.1 0.0
-1.24732 0.15 0.0
-1.29946 0.85 0.0
-1.29932 0.8 0.0
-1.29987 1 0.0
-1.29974 0.95 0.0
-1.30462 0.9 0.0
-1.24762 0.25 0.0
-1.23747 0.2 0.0
-1.24792 0.35 0.0
-1.22807 0.4 0.0
-1.27111 0.55 0.0
-1.24837 0.5 0.0
-1.24822 0.45 0.0
-1.24867 0.6 0.0
-1.26639 0.65 0.0
-1.26167 0.75 0.0
-1.24897 0.7 0.0
-1.23277 0.3 0.0
-1.19667 0 0.0
-1.19683 0.05 0.0
-1.18964 0.15 0.0
-1.19198 0.1 0.0
-1.25695 0.85 0.0
-1.24927 0.8 0.0
-1.25223 0.95 0.0
-1.24987 1 0.0
-1.24957 0.9 0.0
-1.1873 0.2 0.0
-1.18496 0.25 0.0
-1.18028 0.35 0.0
-1.17794 0.4 0.0
-1.1981 0.45 0.0
-1.19842 0.55 0.0
-1.19826 0.5 0.0
-1.19858 0.6 0.0
-1.19874 0.65 0.0
-1.19906 0.75 0.0
-1.1989 0.7 0.0
-1.18262 0.3 0.0
-1.14646 0 0.0
-1.14663 0.05 0.0
-1.1418 0.1 0.0
-1.13713 0.2 0.0
-1.14697 0.15 0.0
-1.20691 0.85 0.0
-1.20926 0.8 0.0
-1.20221 0.95 0.0
-1.19986 1 0.0
-1.20456 0.9 0.0
-1.13997 0.3 0.0
-1.14731 0.25 0.0
-1.13781 0.4 0.0
-1.13014 0.35 0.0
-1.12548 0.45 0.0
-1.14815 0.5 0.0
-1.15962 0.55 0.0
-1.14849 0.6 0.0
-1.15745 0.65 0.0
-1.16155 0.75 0.0
-1.14917 0.8 0.0
-1.14883 0.7 0.0
-1.09625 0 0.0
-1.09661 0.1 0.0
-1.09393 0.05 0.0
-1.09697 0.2 0.0
-1.08929 0.15 0.0
-1.15687 0.85 0.0
-1.14985 1 0.0
-1.15219 0.95 0.0
-1.14951 0.9 0.0
-1.09733 0.3 0.0
-1.08465 0.25 0.0
-1.09769 0.4 0.0
-1.08 0.35 0.0
-1.08661 0.45 0.0
-1.09804 0.5 0.0
-1.12082 0.55 0.0
-1.10916 0.8 0.0
-1.10629 0.7 0.0
-1.0984 0.6 0.0
-1.11616 0.65 0.0
-1.11149 0.75 0.0
-1.04604 0 0.0
-1.04623 0.05 0.0
-1.04642 0.1 0.0
-1.0468 0.2 0.0
-1.03911 0.15 0.0
-1.09948 0.9 0.0
-1.0993 0.85 0.0
-1.09984 1 0.0
-1.09966 0.95 0.0
-1.04718 0.3 0.0
-1.03449 0.25 0.0
-1.04756 0.4 0.0
-1.02986 0.35 0.0
-1.04775 0.45 0.0
-1.04794 0.5 0.0
-1.04813 0.55 0.0
-1.05911 0.8 0.0
-1.04831 0.6 0.0
-1.06376 0.7 0.0
-1.0485 0.65 0.0
-1.04888 0.75 0.0
-0.995833 0 0.0
-0.991231 0.1 0.0
-0.996033 0.05 0.0
-0.986629 0.2 0.0
-0.98893 0.15 0.0
-1.05447 0.9 0.0
-1.04926 0.85 0.0
-1.04983 1 0.0
-1.04964 0.95 0.0
-0.984328 0.25 0.0
-0.99703 0.3 0.0
-0.997429 0.4 0.0
-0.997628 0.45 0.0
-0.979726 0.35 0.0
-0.997827 0.5 0.0
-0.998027 0.55 0.0
-0.998226 0.6 0.0
-0.961416 0.475 0.0
-1.00907 0.8 0.0
-0.998426 0.65 0.0
-0.998625 0.7 0.0
-1.01138 0.75 0.0
-0.945625 0 0.0
-0.946044 0.1 0.0
-0.943334 0.05 0.0
-0.946463 0.2 0.0
-0.938752 0.15 0.0
-1.00444 0.9 0.0
-1.00675 0.85 0.0
-0.999821 1 0.0
-1.00213 0.95 0.0
-0.93417 0.25 0.0
-0.946881 0.3 0.0
-0.9473 0.4 0.0
-0.929588 0.35 0.0
-0.925005 0.45 0.0
-0.960371 0.525 0.0
-0.959325 0.575 0.0
-0.958279 0.625 0.0
-0.922714 0.5 0.0
-0.959017 0.8 0.0
-0.957233 0.675 0.0
-0.952999 0.7125 0.0
-0.948766 0.75 0.0
-0.895417 0 0.0
-0.895855 0.1 0.0
-0.893136 0.05 0.0
-0.896294 0.2 0.0
-0.888573 0.15 0.0
-0.949184 0.85 0.0
-0.954415 0.9 0.0
-0.949812 1 0.0
-0.949603 0.95 0.0
-0.884011 0.25 0.0
-0.896733 0.3 0.0
-0.874887 0.45 0.0
-0.879449 0.35 0.0
-0.897171 0.4 0.0
-0.920423 0.55 0.0
-0.918132 0.6 0.0
-0.915841 0.65 0.0
-0.872606 0.5 0.0
-0.908968 0.8 0.0
-0.91355 0.7 0.0
-0.898707 0.75 0.0
-0.845208 0 0.0
-0.845438 0.05 0.0
-0.845667 0.1 0.0
-0.845896 0.15 0.0
-0.833853 0.25 0.0
-0.846126 0.2 0.0
-0.899146 0.85 0.0
-0.904386 0.9 0.0
-0.899584 0.95 0.0
-0.899804 1 0.0
-0.838062 0.35 0.0
[...]
POINT_DATA 10839
VECTORS Velocity float
0.21 0 0.0
0.24 0 0.0
0.2275 0 0.0
0.2475 0 0.0
0.25 0 0.0
0.2475 0 0.0
0 0 0.0
0.0475 0 0.0
0.1275 0 0.0
0.09 0 0.0
0.09 0 0.0
0.1275 0 0.0
0.1875 0 0.0
0.16 0 0.0
0.195566 -8.87245e-05 0.0
0.242831 -7.8633e-05 0.0
0.215776 -0.000108198 0.0
0.2314 -0.000107423 0.0
0.248709 -4.21656e-05 0.0
0.24 0 0.0
0.24283 4.51174e-05 0.0
0.248505 5.88961e-06 0.0
0 0 0.0
0.0622196 1.3863e-05 0.0
0.0321932 3.55968e-05 0.0
0.16 0 0.0
0.1875 0 0.0
0.21 0 0.0
0.2275 0 0.0
0.193604 7.1757e-05 0.0
0.1389 1.55482e-06 0.0
0 0 0.0
0.0475 0 0.0
0.0998462 -3.16452e-05 0.0
0.0622169 -1.80716e-05 0.0
0.0998549 1.7149e-05 0.0
0.138901 -1.7297e-05 0.0
0.174415 -0.000125344 0.0
0.201628 -0.000220604 0.0
0.235756 -0.000210287 0.0
0.244039 -0.000161078 0.0
0.223581 -0.000374696 0.0
0.249686 -5.95979e-05 0.0
0.248974 2.30472e-05 0.0
0.231397 7.24617e-05 0.0
0.244038 9.78677e-05 0.0
0 0 0.0
0.0358785 0.00014548 0.0
0.0735702 0.00020368 0.0
0.0620134 0.000363277 0.0
0.174409 8.38391e-05 0.0
0.220162 0.000155922 0.0
0.201626 0.000169529 0.0
0.115596 -7.1281e-05 0.0
0.146748 1.81292e-05 0.0
0 0 0.0
0.0360342 -6.28321e-05 0.0
0.0693369 -0.000142593 0.0
0.0900366 -0.000264112 0.0
0.109499 0.000168432 0.0
0.146753 -5.73712e-05 0.0
0.179013 -0.000268012 0.0
0.206335 -0.000425099 0.0
0.21451 -0.000635389 0.0
0.238431 -0.000350088 0.0
0.24721 -0.00021026 0.0
0.229487 -0.000626837 0.0
0.226297 0.000309962 0.0
0.249833 -3.16358e-05 0.0
0.246301 0.000128014 0.0
0.23661 0.000245252 0.0
0 0 0.0
0.0316259 0.000176669 0.0
0.095868 0.00037376 0.0
0.069154 0.000284874 0.0
0.178997 0.000196236 0.0
0.206314 0.000339696 0.0
0.127765 -0.000144691 0.0
0.166208 0.000261244 0.0
0.152544 7.35214e-05 0.0
0 0 0.0
0.0358633 -0.000150777 0.0
0.0619878 -0.000379778 0.0
0.0958382 -0.000406029 0.0
0.127797 9.78713e-05 0.0
0.156955 -0.000226032 0.0
0.116126 0.000177945 0.0
0.193858 -0.000779145 0.0
0.218088 -0.000996806 0.0
0.240722 -0.000492311 0.0
0.247459 -0.000300205 0.0
0.249702 -7.02904e-05 0.0
0.234078 -0.000931351 0.0
0.22948 0.000492089 0.0
0.247457 0.000158567 0.0
0.24071 0.000362511 0.0
0 0 0.0
0.0335761 8.23856e-05 0.0
0.10369 2.11568e-05 0.0
0.0619902 -0.000251531 0.0
0.189939 0.000495383 0.0
0.213043 0.000794461 0.0
0.171108 0.000612026 0.0
0.145032 0.000158026 0.0
0 0 0.0
0.0392951 -0.000241897 0.0
0.100288 -0.000240352 0.0
0.0690951 -0.000325232 0.0
0.171184 -0.00072165 0.0
0.145078 -0.000262645 0.0
0.125438 -0.000662924 0.0
0.18418 -0.00120886 0.0
0.204295 -0.00145596 0.0
0.221791 -0.00154192 0.0
0.24855 0.000132465 0.0
0.243545 -0.000663267 0.0
0.248556 -0.000318042 0.0
0.237836 -0.0012686 0.0
0.234052 0.000765888 0.0
0.244309 0.000520736 0.0
0 0 0.0
0.0316796 -0.000205226 0.0
0.0947518 -0.000934054 0.0
0.0658636 -0.00133187 0.0
0.197052 0.00115879 0.0
0.21777 0.0013288 0.0
0.178341 0.00161888 0.0
0.149796 0.000776195 0.0
0.121306 0.000230269 0.0
0 0 0.0
0.0335355 -9.89763e-05 0.0
0.071694 0.00033488 0.0
0.153571 -0.0012632 0.0
0.128963 -0.00214287 0.0
0.188207 -0.0020503 0.0
0.21185 -0.00232639 0.0
0.24763 0.000343496 0.0
0.225036 -0.00225236 0.0
0.248772 -0.000283432 0.0
0.245546 -0.000793202 0.0
0.240712 -0.00159099 0.0
0.237809 0.00104034 0.0
0 0 0.0
0.0345215 -0.000645616 0.0
0.101599 -0.00331228 0.0
0.0727411 -0.00315585 0.0
0.206418 0.00204834 0.0
0.221965 0.00203103 0.0
0.190629 0.00320817 0.0
0.169517 0.00291246 0.0
0.144568 0.00252659 0.0
0.125556 0.00148583 0.0
0.0980596 0.00121793 0.0
0 0 0.0
0.0354464 0.000222635 0.0
0.0683406 0.00153045 0.0
0.131864 -0.00451323 0.0
0.169636 -0.00304728 0.0
0.19967 -0.00322334 0.0
0.217727 -0.00320413 0.0
0.240676 0.0013004 0.0
0.248355 -0.000121393 0.0
0.246425 0.000633263 0.0
0.227704 -0.00312356 0.0
0.242623 -0.00183638 0.0
0.246883 -0.000817803 0.0
0.233202 0.00213188 0.0
0 0 0.0
0.0396855 -0.00124097 0.0
0.124651 -0.00730003 0.0
0.0780162 -0.00480076 0.0
0.208205 0.00328628 0.0
0.223918 0.0032793 0.0
0.198037 0.00482326 0.0
0.178573 0.00480875 0.0
0.148009 0.00487495 0.0
0.120922 0.00421279 0.0
0.0985786 0.00269336 0.0
0 0 0.0
0.0358667 0.000700882 0.0
0.0701595 0.00274873 0.0
0.153408 -0.00650654 0.0
0.178662 -0.00521717 0.0
0.209452 -0.0044542 0.0
0.242599 0.00152308 0.0
0.246878 0.00039789 0.0
0.229693 -0.00414674 0.0
0.240864 -0.00256693 0.0
0.2459 -7.9717e-05 0.0
0.246217 -0.000938133 0.0
0.233596 0.00305771 0.0
0.210832 -0.00706522 0.0
0 0 0.0
0.0443245 -0.00170318 0.0
0.142303 -0.0101341 0.0
0.107509 -0.00932003 0.0
0.0783611 -0.0052879 0.0
0.212541 0.00483792 0.0
0.186495 0.00708099 0.0
0.165782 0.00745885 0.0
0.124547 0.00720389 0.0
0.0964386 0.00521379 0.0
0 0 0.0
0.0380752 0.00111937 0.0
0.0711124 0.00397214 0.0
0.165699 -0.00919855 0.0
0.186542 -0.00773605 0.0
0.15784 -0.0128404 0.0
0.243492 0.00158327 0.0
0.243274 0.00132936 0.0
0.22726 -0.00579087 0.0
0.235887 -0.00429926 0.0
0.243347 -0.0017476 0.0
0.23651 0.00334606 0.0
0.2258 0.00553341 0.0
0.196852 -0.00988467 0.0
0.214386 -0.00899435 0.0
0 0 0.0
0.0454081 -0.00170731 0.0
0.131175 -0.0135544 0.0
0.0843627 -0.00605356 0.0
0.111155 -0.0107518 0.0
0.205709 0.00837576 0.0
0.188376 0.00972022 0.0
0.167793 0.0108199 0.0
0.142117 0.00993573 0.0
0.101723 0.00768218 0.0
0 0 0.0
0.0397419 0.00137986 0.0
0.078025 0.00521191 0.0
0.180777 -0.0131872 0.0
0.15857 -0.0158718 0.0
0.238969 0.00327982 0.0
0.241866 0.000780063 0.0
0.22959 -0.00686412 0.0
0.237618 -0.00430062 0.0
0.241661 -0.00168843 0.0
0.232317 0.00560223 0.0
0.213375 0.00981987 0.0
0.198335 -0.0131475 0.0
0.216615 -0.0106616 0.0
0 0 0.0
0.0658787 -0.00326771 0.0
0.135614 -0.0156832 0.0
0.109774 -0.0100917 0.0
0.198675 0.0118295 0.0
0.17583 0.013871 0.0
0.149055 0.0143945 0.0
0.123851 0.0115381 0.0
0.0939676 0.00756925 0.0
0 0 0.0
0.0450572 0.00168359 0.0
0.182874 -0.0169553 0.0
0.159698 -0.0183985 0.0
0.237647 0.00363888 0.0
0.239248 -0.000246946 0.0
0.230351 -0.00761404 0.0
0.23532 -0.00440596 0.0
0.230212 0.00709252 0.0
0.218914 0.0106441 0.0
0.202942 0.0139347 0.0
0.217826 -0.0121085 0.0
0.202277 -0.0154191 0.0
0 0 0.0
0.0717721 -0.00303945 0.0
0.140296 -0.0165489 0.0
0.116276 -0.0100332 0.0
0.182621 0.0165863 0.0
0.159224 0.0175411 0.0
0.0653975 0.00321997 0.0
0.135091 0.0154925 0.0
0.108412 0.00993387 0.0
0 0 0.0
0.181194 -0.0200331 0.0
0.160966 -0.0202541 0.0
0.234795 0.00395896 0.0
0.235007 -0.000296981 0.0
0.226314 -0.00952284 0.0
0.230675 -0.00539826 0.0
0.215044 0.0133699 0.0
0.226145 0.00897351 0.0
0.180795 0.0196384 0.0
0.199732 0.0171143 0.0
0.214543 -0.0143197 0.0
0.199074 -0.0183615 0.0
0 0 0.0
0.0773658 -0.00264362 0.0
0.14597 -0.0160883 0.0
0.124365 -0.00917648 0.0
0.139828 0.0162948 0.0
0.160169 0.0197041 0.0
0.0709152 0.00302481 0.0
0.115609 0.00987771 0.0
0 0 0.0
0.180192 -0.0216145 0.0
0.163408 -0.0204971 0.0
0.230079 0.00488689 0.0
0.229856 -0.000333203 0.0
0.211017 -0.0160345 0.0
0.219344 -0.0116964 0.0
0.225241 -0.0061888 0.0
0.211465 0.0151666 0.0
0.221246 0.0105644 0.0
0.179909 0.0209259 0.0
0.196514 0.0191999 0.0
0.19606 -0.020111 0.0
0 0 0.0
0.0821062 -0.00229747 0.0
0.152987 -0.0142203 0.0
0.131248 -0.00787217 0.0
0.144432 0.015954 0.0
0.162273 0.0202056 0.0
0.0764984 0.00263913 0.0
0.122866 0.00912183 0.0
0 0 0.0
0.166723 -0.0191676 0.0
0.180192 -0.0211563 0.0
0.224541 0.00555451 0.0
0.223915 -0.0003835 0.0
0.215044 -0.0122511 0.0
0.205143 -0.0171017 0.0
0.219278 -0.00657986 0.0
0.215905 0.0114518 0.0
0.207852 0.0162045 0.0
0.179528 0.0211492 0.0
0.193794 0.0197714 0.0
0.19356 -0.0202359 0.0
0 0 0.0
0.0856085 -0.00182796 0.0
0.158104 -0.0123141 0.0
0.137255 -0.00633053 0.0
0.150391 0.0145252 0.0
0.165353 0.0191345 0.0
0 0 0.0
0.129711 0.00779575 0.0
0.0808927 0.00220226 0.0
0.181109 -0.019091 0.0
0.170494 -0.0167348 0.0
0.201995 -0.0164928 0.0
0.21855 0.00578628 0.0
0.217671 -0.000433273 0.0
0.214633 -0.00652876 0.0
0.21085 -0.0121694 0.0
0.210553 0.0113511 0.0
0.203593 0.0162345 0.0
0.180149 0.0191163 0.0
0.191723 0.018732 0.0
0.191775 -0.0188353 0.0
0 0 0.0
0.0887064 -0.00131491 0.0
0.141699 -0.00497249 0.0
0.163433 -0.00985707 0.0
0.157166 0.0119441 0.0
0.168976 0.0168214 0.0
0 0 0.0
0.0848273 0.00170979 0.0
0.135066 0.00642012 0.0
0.18213 -0.016932 0.0
0.174288 -0.0137475 0.0
0.199223 -0.0151107 0.0
0.204106 -0.0106975 0.0
0.212584 0.00548911 0.0
0.211603 -0.000514874 0.0
0.210179 -0.00619119 0.0
0.205616 0.0103173 0.0
0.199911 0.0149425 0.0
0.181071 0.0170371 0.0
0.19035 0.0163878 0.0
0.190695 -0.0163417 0.0
0 0 0.0
0.0909141 -0.000892663 0.0
0.168742 -0.00715613 0.0
0.146065 -0.00348283 0.0
0.161729 0.00981263 0.0
0.17265 0.0138212 0.0
0.0875219 0.00127383 0.0
0 0 0.0
0.14049 0.00471202 0.0
0.177684 -0.010731 0.0
0.183924 -0.0128953 0.0
0.195737 -0.0119396 0.0
0.200295 -0.00902579 0.0
0.205094 -0.00544371 0.0
0.204844 0.00431925 0.0
0.206182 -0.000586929 0.0
0.201364 0.00862041 0.0
0.19596 0.0117839 0.0
0.1827 0.0129119 0.0
0.189538 0.0133367 0.0
0.190081 -0.013324 0.0
0 0 0.0
0.0925588 -0.000614142 0.0
0.148842 -0.00247945 0.0
0.180542 -0.00803808 0.0
0.171709 -0.00547499 0.0
0.166277 0.00734795 0.0
0.175403 0.0113043 0.0
0.089569 0.000852978 0.0
0 0 0.0
0.143987 0.00346969 0.0
0.189866 -0.0108138 0.0
0.185096 -0.0106132 0.0
0.197783 -0.00758569 0.0
0.193975 -0.00944308 0.0
0.199243 -0.00420687 0.0
0.201656 -0.000682328 0.0
0.201545 0.00349926 0.0
0.197939 0.00666828 0.0
0.194249 0.00956374 0.0
0.183783 0.010465 0.0
0.178894 0.00777496 0.0
0.189083 0.0101736 0.0
0 0 0.0
0.150787 -0.00176941 0.0
0.0935715 -0.000458864 0.0
0.182491 -0.00623933 0.0
0.174863 -0.00373456 0.0
0.169876 0.00519099 0.0
0 0 0.0
0.0909519 0.000512496 0.0
0.147028 0.00222767 0.0
0.189808 -0.00855796 0.0
0.186621 -0.00737602 0.0
0.195821 -0.00628427 0.0
0.192698 -0.0072427 0.0
0.19701 -0.00359438 0.0
0.198153 -0.000784658 0.0
0.198733 0.00266508 0.0
0.180716 0.00580756 0.0
0.18892 0.00769988 0.0
0.195356 0.00477729 0.0
0.192866 0.00742244 0.0
0.184955 0.00751406 0.0
0 0 0.0
0.0941345 -0.000309424 0.0
0.152284 -0.00124029 0.0
0.184331 -0.00452289 0.0
0.176839 -0.00266474 0.0
0.148843 0.00138747 0.0
0.172861 0.00325323 0.0
0 0 0.0
0.0919679 0.000264088 0.0
0.189868 -0.00638965 0.0
0.18769 -0.00543571 0.0
0.193977 -0.00487994 0.0
0.191863 -0.00551044 0.0
0.195173 -0.00308602 0.0
0.195496 -0.000927101 0.0
0.194879 0.00125155 0.0
0.18245 0.00380218 0.0
0.193418 0.00312664 0.0
0.188804 0.00557252 0.0
0.191277 0.00441543 0.0
0.186126 0.00457654 0.0
0 0 0.0
0.153429 -0.000872807 0.0
0.0948432 -0.00020316 0.0
0.185952 -0.00310543 0.0
0.178264 -0.00195719 0.0
0.14999 0.000815551 0.0
0.174689 0.00200657 0.0
0 0 0.0
0.0922397 0.000173363 0.0
0.188498 -0.00405015 0.0
0.189978 -0.00479317 0.0
0.192706 -0.00384568 0.0
0.193464 -0.00259816 0.0
0.191319 -0.00423778 0.0
0.193625 -0.00108266 0.0
0.193146 0.000454902 0.0
0.192054 0.00179339 0.0
0.192657 -0.00180619 0.0
0.18372 0.00230807 0.0
0.190527 0.00270036 0.0
0.188734 0.00305848 0.0
0.186639 0.0032162 0.0
0 0 0.0
0.154164 -0.00071293 0.0
0.0952135 -0.00021457 0.0
0.186796 -0.0025055 0.0
0.179318 -0.00152 0.0
0.15076 0.000365958 0.0
0.175742 0.00121815 0.0
0 0 0.0
0.092523 3.65422e-05 0.0
0.189149 -0.00312334 0.0
0.190146 -0.00369312 0.0
0.191834 -0.00314253 0.0
0.190999 -0.00339611 0.0
0.191884 -0.00223272 0.0
0.192436 -0.000621728 0.0
0.191754 0.000475194 0.0
0.19069 0.00132335 0.0
0.191818 -0.0013717 0.0
0.184531 0.00121581 0.0
0.189388 0.00179251 0.0
0.188337 0.00176733 0.0
0.187211 0.00152654 0.0
0 0 0.0
0.154771 -0.000639257 0.0
0.0955393 -0.000193863 0.0
0.187595 -0.00203313 0.0
0.180122 -0.00129146 0.0
0.176631 0.000461955 0.0
0.151178 5.07183e-05 0.0
0 0 0.0
0.0927005 -7.01985e-05 0.0
0.189674 -0.00256338 0.0
0.190317 -0.00300074 0.0
0.191211 -0.00217041 0.0
0.190828 -0.00289123 0.0
0.191288 -0.00272636 0.0
0.191389 -0.000505486 0.0
0.19065 0.00022403 0.0
0.189697 0.000713183 0.0
0.191064 -0.00159814 0.0
0.185043 0.000439303 0.0
0.188635 0.000899253 0.0
0.187459 0.000576221 0.0
0 0 0.0
0.0957507 -0.000205609 0.0
0.155335 -0.00063213 0.0
0.1807 -0.00121041 0.0
0.190109 -0.00227862 0.0
0.188222 -0.00179772 0.0
0.177036 2.463e-06 0.0
0.15132 -0.000143899 0.0
0.0925035 -7.55495e-05 0.0
0 0 0.0
0.190771 -0.00267887 0.0
0.190511 -0.00262856 0.0
0.190864 -0.00221649 0.0
0.19094 -0.00254807 0.0
0.189349 -0.000126223 0.0
0.190673 -0.00100686 0.0
0.190078 -0.000490969 0.0
0.190557 -0.00186335 0.0
0.187569 -0.00012798 0.0
0.185314 -0.000224804 0.0
0.188509 -0.000166216 0.0
0 0 0.0
0.0962161 -0.000219086 0.0
0.155864 -0.000677828 0.0
0.181256 -0.00119865 0.0
0.190421 -0.00220264 0.0
0.188892 -0.00175776 0.0
0.177157 -0.000328171 0.0
0.151283 -0.000303278 0.0
0.0923248 -0.000119324 0.0
0 0 0.0
0.177235 -0.000589315 0.0
0.190764 -0.00260163 0.0
0.190769 -0.00250154 0.0
0.190683 -0.00259535 0.0
0.190611 -0.00232731 0.0
0.188976 -0.000984931 0.0
0.189661 -0.00107525 0.0
0.190173 -0.00145563 0.0
0.190199 -0.00217209 0.0
0.187579 -0.000669898 0.0
0.185398 -0.000632291 0.0
0.188373 -0.000779563 0.0
0 0 0.0
0.0966331 -0.000225122 0.0
0.156424 -0.000767688 0.0
0.181796 -0.00130454 0.0
0.19079 -0.0022449 0.0
0.189381 -0.00186409 0.0
0.091992 -0.000150863 0.0
0.151152 -0.000423587 0.0
0 0 0.0
0.177056 -0.00076691 0.0
0.190817 -0.00269351 0.0
0.190997 -0.00260604 0.0
0.190613 -0.00279804 0.0
0.190384 -0.00256821 0.0
0.188766 -0.00142205 0.0
0.189334 -0.00158195 0.0
0.189946 -0.00253442 0.0
0.189668 -0.00207205 0.0
0.18749 -0.00100276 0.0
0.185306 -0.000966235 0.0
0.1882 -0.00128188 0.0
0 0 0.0
0.0971725 -0.000276734 0.0
0.156945 -0.000905377 0.0
0.1824 -0.00150319 0.0
0.191242 -0.00249464 0.0
0.191237 -0.00286124 0.0
0.189864 -0.00208795 0.0
0.091819 -0.000193562 0.0
0.15082 -0.000534613 0.0
0 0 0.0
0.176827 -0.00095577 0.0
0.190944 -0.00302679 0.0
0.190593 -0.00305361 0.0
0.190239 -0.00290454 0.0
0.189788 -0.00284708 0.0
0.188559 -0.00181814 0.0
0.189044 -0.00206196 0.0
0.189402 -0.00251152 0.0
0.185166 -0.00126168 0.0
0.187323 -0.00139652 0.0
0.187976 -0.00172491 0.0
0 0 0.0
0.0976935 -0.000400348 0.0
0.157695 -0.00108616 0.0
0.183045 -0.00178339 0.0
0.191544 -0.0027521 0.0
0.191491 -0.003229 0.0
0.19038 -0.00240252 0.0
0.0914939 -0.000247561 0.0
0.15048 -0.000630713 0.0
0 0 0.0
0.18488 -0.00147514 0.0
0.149972 -0.000714281 0.0
0.176365 -0.0011619 0.0
0.191082 -0.00345825 0.0
0.190593 -0.00336378 0.0
0.190095 -0.0035525 0.0
0.189658 -0.0031903 0.0
0.189219 -0.00287793 0.0
0.188297 -0.00227399 0.0
0.188678 -0.00272668 0.0
0.186995 -0.00183744 0.0
0.187757 -0.00208975 0.0
0.191219 -0.00388206 0.0
0 0 0.0
0.0983806 -0.00047482 0.0
0.183791 -0.00213113 0.0
0.158525 -0.00133706 0.0
0.191789 -0.00375266 0.0
0.192051 -0.00331661 0.0
0.190911 -0.00283246 0.0
0.0911611 -0.000273175 0.0
0 0 0.0
0.186765 -0.0021068 0.0
0.184551 -0.00174354 0.0
0.176025 -0.00135358 0.0
0.0905245 -0.000252368 0.0
0.149561 -0.000820101 0.0
0.190627 -0.00388262 0.0
0.190032 -0.00398679 0.0
0.18948 -0.00371882 0.0
0.189352 -0.00417761 0.0
0.189031 -0.00326875 0.0
0.187993 -0.00274182 0.0
0.188381 -0.00323498 0.0
0.18748 -0.00243879 0.0
0.191337 -0.00439667 0.0
0.0991153 -0.00059055 0.0
0 0 0.0
0.184402 -0.00248858 0.0
0.159432 -0.0016254 0.0
0.192096 -0.0044053 0.0
0.192402 -0.00376679 0.0
0.19154 -0.00337855 0.0
0 0 0.0
0.18636 -0.00245647 0.0
0.183967 -0.00207365 0.0
0.175476 -0.0015094 0.0
0.0901259 -0.000293349 0.0
0.148909 -0.000928553 0.0
0.190668 -0.00480716 0.0
0.189975 -0.00447448 0.0
0.189199 -0.00467645 0.0
0.188672 -0.00408183 0.0
0.187655 -0.00322386 0.0
0.188071 -0.0037842 0.0
0.186993 -0.0030047 0.0
0.191532 -0.00517094 0.0
0 0 0.0
0.100256 -0.000706987 0.0
0.185291 -0.00302424 0.0
0.160476 -0.00196063 0.0
0.192206 -0.0040592 0.0
0.192439 -0.0052222 0.0
0.193027 -0.00467114 0.0
0 0 0.0
0 0 0.0
0.185881 -0.0028378 0.0
0.183499 -0.00237793 0.0
0.174934 -0.00170761 0.0
0.148226 -0.00103817 0.0
0.0895895 -0.000356144 0.0
0.190688 -0.00563068 0.0
0.189864 -0.00522453 0.0
0.187779 -0.00426004 0.0
0.188973 -0.00543235 0.0
0.188361 -0.0047516 0.0
0.187252 -0.0037509 0.0
0.186517 -0.0034673 0.0
0.190683 -0.00640798 0.0
0.19168 -0.00610849 0.0
0.101638 -0.000859867 0.0
0.161748 -0.00238223 0.0
0.186361 -0.00370291 0.0
0.192887 -0.00472972 0.0
0.192804 -0.00620276 0.0
0.193445 -0.00539914 0.0
0 0 0.0
0 0 0.0
0.182929 -0.00261996 0.0
0.185144 -0.00333339 0.0
0.147466 -0.00114176 0.0
0.17407 -0.00195085 0.0
0.0889527 -0.000388357 0.0
0.189663 -0.00649901 0.0
0.18867 -0.00631087 0.0
0.185979 -0.00396987 0.0
0.187441 -0.00477193 0.0
0.18809 -0.00532923 0.0
0.186597 -0.0045305 0.0
0.190657 -0.00725781 0.0
0.19191 -0.00767265 0.0
0.193169 -0.00742085 0.0
0.103201 -0.00112418 0.0
0.163463 -0.00295001 0.0
0.187784 -0.00474815 0.0
0.193751 -0.0057132 0.0
0.194208 -0.00682745 0.0
0 0 0.0
0 0 0.0
0.182055 -0.00301066 0.0
0.184475 -0.00377965 0.0
0.146571 -0.00128047 0.0
0.173247 -0.00218002 0.0
0.088231 -0.000425004 0.0
0.187771 -0.00595932 0.0
0.188294 -0.00729014 0.0
0.189401 -0.00759869 0.0
0.185338 -0.00450823 0.0
0.186957 -0.00548623 0.0
0.186003 -0.00518997 0.0
0.183694 -0.00425338 0.0
0.190476 -0.00906668 0.0
0 0 0.0
0.191955 -0.00914071 0.0
0.194878 -0.00827052 0.0
0.193504 -0.00885722 0.0
0.105162 -0.00140857 0.0
0.189179 -0.00571067 0.0
0.165786 -0.00384175 0.0
0.194966 -0.00733637 0.0
0 0 0.0
0 0 0.0
0 0 0.0
0 0 0.0
0 0 0.0
0.0874996 -0.000460935 0.0
0.172407 -0.00243081 0.0
0.18123 -0.00336981 0.0
0.145745 -0.00139576 0.0
0.187269 -0.0068414 0.0
0.187796 -0.00841057 0.0
0.189074 -0.00884472 0.0
0.185429 -0.00575163 0.0
0.184577 -0.0050941 0.0
0.186097 -0.00660743 0.0
0.183852 -0.00562193 0.0
0.182993 -0.00462038 0.0
0.190173 -0.0106432 0.0
0.191934 -0.0107884 0.0
0 0 0.0
-0.000509306 0.000273264 0.0
0 0 0.0
-0.000622453 0.00668999 0.0
0.19381 -0.0106368 0.0
0.195415 -0.00957338 0.0
0.107851 -0.00183794 0.0
0.190914 -0.00709895 0.0
0.168374 -0.00495525 0.0
0.196197 -0.00912351 0.0
0 0 0.0
0 0 0.0
0 0 0.0
-0.000485614 0.00499166 0.0
-0.000430216 0.0015447 0.0
-0.00125407 0.00131548 0.0
0 0 0.0
0.0866585 -0.00050059 0.0
0.171471 -0.00264144 0.0
0.180262 -0.0037478 0.0
0.144525 -0.00154807 0.0
0.186659 -0.00783918 0.0
0.187156 -0.00966304 0.0
0.188589 -0.0102506 0.0
0.184769 -0.00636725 0.0
0.185493 -0.00733272 0.0
0.183017 -0.00616838 0.0
0.181702 -0.00527044 0.0
0.189735 -0.0124097 0.0
0.191262 -0.0125588 0.0
0.19288 -0.012492 0.0
0 0 0.0
-0.00158217 0.000475982 0.0
0 0 0.0
0 0 0.0
-0.00208217 0.0105321 0.0
-0.00192702 0.00818984 0.0
0.194495 -0.0123145 0.0
0.196072 -0.011719 0.0
0.171185 -0.00629046 0.0
0.111055 -0.00245009 0.0
0.192999 -0.00897915 0.0
0.197421 -0.0113915 0.0
0 0 0.0
-0.00129071 0.00420402 0.0
-0.00156852 0.00610002 0.0
-0.00172314 0.00290305 0.0
-0.00285218 0.00171938 0.0
0 0 0.0
0.0857462 -0.000541899 0.0
0.17033 -0.00289713 0.0
0.179145 -0.00412875 0.0
0.143337 -0.00168501 0.0
0.185897 -0.00893173 0.0
0.186341 -0.0110304 0.0
0.187917 -0.0118327 0.0
0.183506 -0.00745304 0.0
0.184795 -0.00808611 0.0
0.181894 -0.00685373 0.0
0.177988 -0.00453555 0.0
0.180531 -0.00581436 0.0
0.189195 -0.0139913 0.0
0.191495 -0.0142638 0.0
0.193992 -0.0145528 0.0
0 0 0.0
-0.00312127 0.000522031 0.0
0 0 0.0
0 0 0.0
0 0 0.0
0 0 0.0
-0.00336203 0.00689177 0.0
-0.000883907 0.010474 0.0
-0.00238685 0.012713 0.0
-0.00449956 0.0120102 0.0
-0.00354958 0.00957369 0.0
0 0 0.0
-0.000925009 0.0200712 0.0
0.196687 -0.0151395 0.0
0.198451 -0.0136494 0.0
0 0 0.0
0.115771 -0.00347039 0.0
0.175128 -0.0081524 0.0
0.195859 -0.0121824 0.0
0 0 0.0
0 0 0.0
-0.00296111 0.00508677 0.0
-0.00349849 0.00327345 0.0
-0.00452397 0.00159394 0.0
0 0 0.0
0.0847067 -0.000584128 0.0
0.168874 -0.00319504 0.0
0.141997 -0.00181656 0.0
0.176843 -0.0048381 0.0
0.184962 -0.0101179 0.0
0.185581 -0.0121388 0.0
0.187024 -0.0135975 0.0
0.182564 -0.00815006 0.0
0.183771 -0.00909052 0.0
0.180627 -0.00755188 0.0
0.179507 -0.0062132 0.0
0.192432 -0.016126 0.0
0.188462 -0.015723 0.0
0.19061 -0.017671 0.0
0.193622 -0.0183473 0.0
0.196942 -0.0187357 0.0
0 0 0.0
-0.00406963 0.000396518 0.0
-0.00113982 0.0183963 0.0
-0.0036871 0.0236243 0.0
-0.00108719 0.0132494 0.0
-0.0047181 0.0071309 0.0
-0.00545225 0.0043306 0.0
-0.00342042 0.0168803 0.0
-0.00572051 0.0149325 0.0
-0.00653013 0.0101146 0.0