# vtk DataFile Version 3.0
Mesh NS-CD Problem
ASCII
DATASET UNSTRUCTURED_GRID
POINTS 10839 float
-2 0.3 0.0
-2 0.4 0.0
-2 0.35 0.0
-2 0.45 0.0
-2 0.5 0.0
-2 0.55 0.0
-2 0 0.0
-2 0.05 0.0
-2 0.85 0.0
-2 0.9 0.0
-2 0.1 0.0
-2 0.15 0.0
-2 0.25 0.0
-2 0.2 0.0
-1.96653 0.266667 0.0
-1.96524 0.415385 0.0
-1.96485 0.315 0.0
-1.96348 0.363636 0.0
-1.96414 0.464286 0.0
-2 0.6 0.0
-1.96538 0.584615 0.0
-1.96538 0.538462 0.0
-1.94979 0 0.0
-1.96653 0.0666666 0.0
-1.93306 0.0333333 0.0
-2 0.8 0.0
-2 0.75 0.0
-2 0.7 0.0
-2 0.65 0.0
-1.96249 0.7375 0.0
-1.96666 0.833333 0.0
-2 1 0.0
-2 0.95 0.0
-1.96249 0.8875 0.0
-1.96666 0.933333 0.0
-1.96234 0.1125 0.0
-1.96653 0.166667 0.0
-1.93724 0.225 0.0
-1.92971 0.28 0.0
-1.93048 0.380769 0.0
-1.93048 0.423077 0.0
-1.89958 0.3375 0.0
-1.9292 0.484203 0.0
-1.92117 0.530907 0.0
-1.96363 0.636364 0.0
-1.93076 0.576923 0.0
-1.89958 0 0.0
-1.88703 0.0375 0.0
-1.90963 0.08 0.0
-1.86611 0.0666666 0.0
-1.93749 0.775 0.0
-1.93635 0.672727 0.0
-1.92999 0.72 0.0
-1.93332 0.866667 0.0
-1.92856 0.821429 0.0
-1.94999 1 0.0
-1.92499 0.9625 0.0
-1.92499 0.925 0.0
-1.89998 0.9 0.0
-1.89958 0.125 0.0
-1.92827 0.178571 0.0
-1.89958 0.233333 0.0
-1.89045 0.290909 0.0
-1.86096 0.311538 0.0
-1.89241 0.392857 0.0
-1.89334 0.448489 0.0
-1.85655 0.357143 0.0
-1.89614 0.653846 0.0
-1.89427 0.504121 0.0
-1.8952 0.559753 0.0
-1.89614 0.615385 0.0
-1.84937 0 0.0
-1.83264 0.0333333 0.0
-1.85655 0.107143 0.0
-1.81172 0.075 0.0
-1.89998 0.766667 0.0
-1.89089 0.709091 0.0
-1.87498 0.85 0.0
-1.85998 0.79 0.0
-1.88748 0.8125 0.0
-1.89998 1 0.0
-1.88748 0.9625 0.0
-1.86664 0.933333 0.0
-1.85712 0.892857 0.0
-1.87448 0.15 0.0
-1.86611 0.194444 0.0
-1.83264 0.133333 0.0
-1.83264 0.2625 0.0
-1.82068 0.321429 0.0
-1.85664 0.404762 0.0
-1.85674 0.452381 0.0
-1.85683 0.5 0.0
-1.81184 0.375 0.0
-1.85712 0.642857 0.0
-1.85693 0.547619 0.0
-1.85702 0.595238 0.0
-1.79917 0 0.0
-1.78482 0.0357143 0.0
-1.79917 0.116667 0.0
-1.76569 0.0666666 0.0
-1.85452 0.745455 0.0
-1.82689 0.692308 0.0
-1.81815 0.781818 0.0
-1.82497 0.825 0.0
-1.84997 1 0.0
-1.8333 0.958333 0.0
-1.81247 0.8875 0.0
-1.81247 0.925 0.0
-1.81742 0.218182 0.0
-1.82427 0.175 0.0
-1.77634 0.145455 0.0
-1.79144 0.242308 0.0
-1.78482 0.285714 0.0
-1.77469 0.332653 0.0
-1.81215 0.529762 0.0
-1.81194 0.422619 0.0
-1.81203 0.470238 0.0
-1.76714 0.392857 0.0
-1.81234 0.625 0.0
-1.79732 0.571429 0.0
-1.74896 0 0.0
-1.73222 0.0333333 0.0
-1.75398 0.105 0.0
-1.71883 0.07 0.0
-1.79227 0.730769 0.0
-1.78007 0.679121 0.0
-1.75765 0.769231 0.0
-1.78178 0.818182 0.0
-1.78996 0.86 0.0
-1.79996 1 0.0
-1.78568 0.964286 0.0
-1.76663 0.922222 0.0
-1.76569 0.1875 0.0
-1.73222 0.15 0.0
-1.74896 0.25 0.0
-1.73714 0.304762 0.0
-1.76743 0.537202 0.0
-1.72869 0.343878 0.0
-1.76732 0.485119 0.0
-1.76723 0.440476 0.0
-1.72243 0.410714 0.0
-1.76757 0.607143 0.0
-1.69875 0 0.0
-1.68369 0.035 0.0
-1.69875 0.1125 0.0
-1.66528 0.075 0.0
-1.74341 0.708974 0.0
-1.73324 0.665934 0.0
-1.70441 0.74478 0.0
-1.71423 0.785714 0.0
-1.72303 0.826923 0.0
-1.74541 0.854545 0.0
-1.74541 0.890909 0.0
-1.74996 1 0.0
-1.73745 0.9625 0.0
-1.71359 0.927273 0.0
-1.68716 0.153846 0.0
-1.7131 0.214286 0.0
-1.70725 0.275 0.0
-1.69712 0.321939 0.0
-1.72279 0.589286 0.0
-1.72261 0.5 0.0
-1.7227 0.544643 0.0
-1.6827 0.355102 0.0
-1.67773 0.428571 0.0
-1.70763 0.464286 0.0
-1.70369 0.62449 0.0
-1.64854 0 0.0
-1.63181 0.0375 0.0
-1.64137 0.142857 0.0
-1.61764 0.0769231 0.0
-1.69458 0.703846 0.0
-1.67471 0.657437 0.0
-1.66143 0.727637 0.0
-1.67125 0.768571 0.0
-1.67851 0.821429 0.0
-1.68841 0.861538 0.0
-1.70904 0.890909 0.0
-1.69995 1 0.0
-1.68176 0.963636 0.0
-1.67267 0.927273 0.0
-1.65427 0.187143 0.0
-1.66718 0.231429 0.0
-1.66554 0.3 0.0
-1.67802 0.571429 0.0
-1.67792 0.523809 0.0
-1.6367 0.366327 0.0
-1.63682 0.423469 0.0
-1.62568 0.502976 0.0
-1.6629 0.470238 0.0
-1.65254 0.618367 0.0
-1.6059 0.307143 0.0
-1.59833 0 0.0
-1.58288 0.0384615 0.0
-1.60563 0.169643 0.0
-1.58179 0.112271 0.0
-1.56964 0.0714286 0.0
-1.64574 0.690385 0.0
-1.62827 0.751429 0.0
-1.63371 0.791071 0.0
-1.64279 0.857143 0.0
-1.65378 0.896154 0.0
-1.64994 1 0.0
-1.6363 0.963636 0.0
-1.61916 0.930769 0.0
-1.61345 0.209107 0.0
-1.62126 0.248571 0.0
-1.56989 0.196429 0.0
-1.63324 0.553571 0.0
-1.58846 0.535714 0.0
-1.59408 0.361905 0.0
-1.59161 0.402211 0.0
-1.58832 0.464286 0.0
-1.61504 0.598581 0.0
-1.59683 0.64359 0.0
-1.57899 0.274107 0.0
-1.56176 0.322381 0.0
-1.54812 0 0.0
-1.53378 0.0357143 0.0
-1.54593 0.147619 0.0
-1.53385 0.0732143 0.0
-1.53393 0.110714 0.0
-1.58522 0.704286 0.0
-1.58709 0.745 0.0
-1.58896 0.785714 0.0
-1.60695 0.830357 0.0
-1.60707 0.892857 0.0
-1.59993 1 0.0
-1.58454 0.965385 0.0
-1.57135 0.928571 0.0
-1.55209 0.241071 0.0
-1.5291 0.198214 0.0
-1.56936 0.570918 0.0
-1.54369 0.517857 0.0
-1.5464 0.380952 0.0
-1.54564 0.427721 0.0
-1.54488 0.47449 0.0
-1.55026 0.606122 0.0
-1.54222 0.677143 0.0
-1.52943 0.282857 0.0
-1.52143 0.33619 0.0
-1.49792 0 0.0
-1.49802 0.05 0.0
-1.49822 0.15 0.0
-1.49312 0.1 0.0
-1.5423 0.717143 0.0
-1.54419 0.767857 0.0
-1.54727 0.819048 0.0
-1.57122 0.861905 0.0
-1.53553 0.914286 0.0
-1.54992 1 0.0
-1.53563 0.964286 0.0
-1.49842 0.25 0.0
-1.48831 0.2 0.0
-1.5214 0.558929 0.0
-1.49891 0.5 0.0
-1.49871 0.4 0.0
-1.47631 0.45 0.0
-1.49911 0.6 0.0
-1.49921 0.65 0.0
-1.49931 0.7 0.0
-1.48111 0.35 0.0
-1.48351 0.3 0.0
-1.44771 0 0.0
-1.44782 0.05 0.0
-1.44804 0.15 0.0
-1.44793 0.1 0.0
-1.49941 0.75 0.0
-1.49951 0.8 0.0
-1.49981 0.95 0.0
-1.49961 0.85 0.0
-1.49971 0.9 0.0
-1.49991 1 0.0
-1.44826 0.25 0.0
-1.43815 0.2 0.0
-1.47151 0.55 0.0
-1.44881 0.5 0.0
-1.44859 0.4 0.0
-1.42619 0.45 0.0
-1.44913 0.65 0.0
-1.44902 0.6 0.0
-1.44935 0.75 0.0
-1.44924 0.7 0.0
-1.43972 0.35 0.0
-1.43336 0.3 0.0
-1.3975 0 0.0
-1.39762 0.05 0.0
-1.39786 0.15 0.0
-1.39274 0.1 0.0
-1.44957 0.85 0.0
-1.44946 0.8 0.0
-1.4523 0.95 0.0
-1.44968 0.9 0.0
-1.4499 1 0.0
-1.3981 0.25 0.0
-1.38798 0.2 0.0
-1.42141 0.55 0.0
-1.3987 0.5 0.0
-1.39834 0.35 0.0
-1.37845 0.4 0.0
-1.37607 0.45 0.0
-1.40784 0.65 0.0
-1.39894 0.6 0.0
-1.41185 0.75 0.0
-1.39918 0.7 0.0
-1.38322 0.3 0.0
-1.34729 0 0.0
-1.34492 0.05 0.0
-1.34018 0.15 0.0
-1.34255 0.1 0.0
-1.40707 0.85 0.0
-1.39941 0.8 0.0
-1.39977 0.95 0.0
-1.39965 0.9 0.0
-1.39989 1 0.0
-1.33781 0.2 0.0
-1.33544 0.25 0.0
-1.37131 0.55 0.0
-1.34859 0.5 0.0
-1.33833 0.4 0.0
-1.3307 0.35 0.0
-1.32595 0.45 0.0
-1.34885 0.6 0.0
-1.36655 0.65 0.0
-1.36179 0.75 0.0
-1.34911 0.7 0.0
-1.33307 0.3 0.0
-1.29708 0 0.0
-1.29722 0.05 0.0
-1.2975 0.15 0.0
-1.29236 0.1 0.0
-1.35703 0.85 0.0
-1.34937 0.8 0.0
-1.34988 1 0.0
-1.34962 0.9 0.0
-1.35226 0.95 0.0
-1.28528 0.25 0.0
-1.28764 0.2 0.0
-1.28931 0.35 0.0
-1.32121 0.55 0.0
-1.29848 0.5 0.0
-1.28709 0.45 0.0
-1.2982 0.4 0.0
-1.29876 0.6 0.0
-1.31647 0.65 0.0
-1.29918 0.75 0.0
-1.29904 0.7 0.0
-1.28292 0.3 0.0
-1.24687 0 0.0
-1.24702 0.05 0.0
-1.24717 0.1 0.0
-1.24732 0.15 0.0
-1.29946 0.85 0.0
-1.29932 0.8 0.0
-1.29987 1 0.0
-1.29974 0.95 0.0
-1.30462 0.9 0.0
-1.24762 0.25 0.0
-1.23747 0.2 0.0
-1.24792 0.35 0.0
-1.22807 0.4 0.0
-1.27111 0.55 0.0
-1.24837 0.5 0.0
-1.24822 0.45 0.0
-1.24867 0.6 0.0
-1.26639 0.65 0.0
-1.26167 0.75 0.0
-1.24897 0.7 0.0
-1.23277 0.3 0.0
-1.19667 0 0.0
-1.19683 0.05 0.0
-1.18964 0.15 0.0
-1.19198 0.1 0.0
-1.25695 0.85 0.0
-1.24927 0.8 0.0
-1.25223 0.95 0.0
-1.24987 1 0.0
-1.24957 0.9 0.0
-1.1873 0.2 0.0
-1.18496 0.25 0.0
-1.18028 0.35 0.0
-1.17794 0.4 0.0
-1.1981 0.45 0.0
-1.19842 0.55 0.0
-1.19826 0.5 0.0
-1.19858 0.6 0.0
-1.19874 0.65 0.0
-1.19906 0.75 0.0
-1.1989 0.7 0.0
-1.18262 0.3 0.0
-1.14646 0 0.0
-1.14663 0.05 0.0
-1.1418 0.1 0.0
-1.13713 0.2 0.0
-1.14697 0.15 0.0
-1.20691 0.85 0.0
-1.20926 0.8 0.0
-1.20221 0.95 0.0
-1.19986 1 0.0
-1.20456 0.9 0.0
-1.13997 0.3 0.0
-1.14731 0.25 0.0
-1.13781 0.4 0.0
-1.13014 0.35 0.0
-1.12548 0.45 0.0
-1.14815 0.5 0.0
-1.15962 0.55 0.0
-1.14849 0.6 0.0
-1.15745 0.65 0.0
-1.16155 0.75 0.0
-1.14917 0.8 0.0
-1.14883 0.7 0.0
-1.09625 0 0.0
-1.09661 0.1 0.0
-1.09393 0.05 0.0
-1.09697 0.2 0.0
-1.08929 0.15 0.0
-1.15687 0.85 0.0
-1.14985 1 0.0
-1.15219 0.95 0.0
-1.14951 0.9 0.0
-1.09733 0.3 0.0
-1.08465 0.25 0.0
-1.09769 0.4 0.0
-1.08 0.35 0.0
-1.08661 0.45 0.0
-1.09804 0.5 0.0
-1.12082 0.55 0.0
-1.10916 0.8 0.0
-1.10629 0.7 0.0
-1.0984 0.6 0.0
-1.11616 0.65 0.0
-1.11149 0.75 0.0
-1.04604 0 0.0
-1.04623 0.05 0.0
-1.04642 0.1 0.0
-1.0468 0.2 0.0
-1.03911 0.15 0.0
-1.09948 0.9 0.0
-1.0993 0.85 0.0
-1.09984 1 0.0
-1.09966 0.95 0.0
-1.04718 0.3 0.0
-1.03449 0.25 0.0
-1.04756 0.4 0.0
-1.02986 0.35 0.0
-1.04775 0.45 0.0
-1.04794 0.5 0.0
-1.04813 0.55 0.0
-1.05911 0.8 0.0
-1.04831 0.6 0.0
-1.06376 0.7 0.0
-1.0485 0.65 0.0
-1.04888 0.75 0.0
-0.995833 0 0.0
-0.991231 0.1 0.0
-0.996033 0.05 0.0
-0.986629 0.2 0.0
-0.98893 0.15 0.0
-1.05447 0.9 0.0
-1.04926 0.85 0.0
-1.04983 1 0.0
-1.04964 0.95 0.0
-0.984328 0.25 0.0
-0.99703 0.3 0.0
-0.997429 0.4 0.0
-0.997628 0.45 0.0
-0.979726 0.35 0.0
-0.997827 0.5 0.0
-0.998027 0.55 0.0
-0.998226 0.6 0.0
-0.961416 0.475 0.0
-1.00907 0.8 0.0
-0.998426 0.65 0.0
-0.998625 0.7 0.0
-1.01138 0.75 0.0
-0.945625 0 0.0
-0.946044 0.1 0.0
-0.943334 0.05 0.0
-0.946463 0.2 0.0
-0.938752 0.15 0.0
-1.00444 0.9 0.0
-1.00675 0.85 0.0
-0.999821 1 0.0
-1.00213 0.95 0.0
-0.93417 0.25 0.0
-0.946881 0.3 0.0
-0.9473 0.4 0.0
-0.929588 0.35 0.0
-0.925005 0.45 0.0
-0.960371 0.525 0.0
-0.959325 0.575 0.0
-0.958279 0.625 0.0
-0.922714 0.5 0.0
-0.959017 0.8 0.0
-0.957233 0.675 0.0
-0.952999 0.7125 0.0
-0.948766 0.75 0.0
-0.895417 0 0.0
-0.895855 0.1 0.0
-0.893136 0.05 0.0
-0.896294 0.2 0.0
-0.888573 0.15 0.0
-0.949184 0.85 0.0
-0.954415 0.9 0.0
-0.949812 1 0.0
-0.949603 0.95 0.0
-0.884011 0.25 0.0
-0.896733 0.3 0.0
-0.874887 0.45 0.0
-0.879449 0.35 0.0
-0.897171 0.4 0.0
-0.920423 0.55 0.0
-0.918132 0.6 0.0
-0.915841 0.65 0.0
-0.872606 0.5 0.0
-0.908968 0.8 0.0
-0.91355 0.7 0.0
-0.898707 0.75 0.0
-0.845208 0 0.0
-0.845438 0.05 0.0
-0.845667 0.1 0.0
-0.845896 0.15 0.0
-0.833853 0.25 0.0
-0.846126 0.2 0.0
-0.899146 0.85 0.0
-0.904386 0.9 0.0
-0.899584 0.95 0.0
-0.899804 1 0.0
-0.838062 0.35 0.0
[...]
POINT_DATA 10839
VECTORS Velocity float
0.21 0 0.0
0.24 0 0.0
0.2275 0 0.0
0.2475 0 0.0
0.25 0 0.0
0.2475 0 0.0
0 0 0.0
0.0475 0 0.0
0.1275 0 0.0
0.09 0 0.0
0.09 0 0.0
0.1275 0 0.0
0.1875 0 0.0
0.16 0 0.0
0.195605 -0.000344607 0.0
0.242798 -0.000273426 0.0
0.215767 -0.000423559 0.0
0.231378 -0.000405708 0.0
0.248658 -0.000115652 0.0
0.24 0 0.0
0.242797 0.000246209 0.0
0.248455 8.19855e-05 0.0
0 0 0.0
0.0621653 0.000611467 0.0
0.0314032 0.000494057 0.0
0.16 0 0.0
0.1875 0 0.0
0.21 0 0.0
0.2275 0 0.0
0.193649 0.000365045 0.0
0.138991 -0.000112094 0.0
0 0 0.0
0.0475 0 0.0
0.0999481 -0.000570749 0.0
0.062175 -0.000624387 0.0
0.0999151 0.000544045 0.0
0.138998 0.000103363 0.0
0.174591 -0.000466586 0.0
0.201699 -0.000916848 0.0
0.235642 -0.000792265 0.0
0.243889 -0.000566091 0.0
0.223477 -0.00153507 0.0
0.249484 -0.00013124 0.0
0.248752 0.00022637 0.0
0.231366 0.000368758 0.0
0.24389 0.000528062 0.0
0 0 0.0
0.03493 -7.98242e-05 0.0
0.0735373 0.00050327 0.0
0.0623904 -0.00165292 0.0
0.174586 0.000424337 0.0
0.22014 0.000790289 0.0
0.201715 0.000879394 0.0
0.115971 -0.000619783 0.0
0.147138 9.77105e-05 0.0
0 0 0.0
0.0351755 -0.000497289 0.0
0.069172 -0.000967178 0.0
0.0903422 -8.51878e-05 0.0
0.110144 -7.91573e-05 0.0
0.147107 -0.000100832 0.0
0.179417 -0.00129612 0.0
0.206422 -0.00190915 0.0
0.21435 -0.00289129 0.0
0.238093 -0.00134201 0.0
0.246764 -0.000713274 0.0
0.228957 -0.0026378 0.0
0.226145 0.00155274 0.0
0.249361 4.15531e-05 0.0
0.245888 0.000712663 0.0
0.236334 0.00123226 0.0
0 0 0.0
0.0332351 -0.00127685 0.0
0.0963907 -0.00351889 0.0
0.0735377 -0.00671137 0.0
0.179405 0.00121541 0.0
0.206363 0.00180101 0.0
0.128542 0.00170188 0.0
0.166859 0.00295783 0.0
0.153309 0.00117429 0.0
0 0 0.0
0.0349347 8.56473e-05 0.0
0.0624573 0.00164501 0.0
0.0963723 0.00347452 0.0
0.12851 -0.00178004 0.0
0.157713 -0.00254213 0.0
0.116336 -0.00672936 0.0
0.19397 -0.00483931 0.0
0.217372 -0.00489184 0.0
0.23996 -0.00191235 0.0
0.246561 -0.00103928 0.0
0.248755 -6.03246e-05 0.0
0.232702 -0.00408585 0.0
0.22898 0.00250204 0.0
0.246566 0.000910523 0.0
0.239943 0.00181287 0.0
0 0 0.0
0.0406596 -0.00257225 0.0
0.105013 -0.0112755 0.0
0.0735007 -0.00825278 0.0
0.190241 0.00332946 0.0
0.212609 0.00459797 0.0
0.171055 0.00706493 0.0
0.145155 0.00711041 0.0
0 0 0.0
0.0414019 0.00196518 0.0
0.101525 0.00929493 0.0
0.0733823 0.00659116 0.0
0.171147 -0.00722806 0.0
0.14506 -0.00725413 0.0
0.125087 -0.0155519 0.0
0.183094 -0.00998283 0.0
0.202803 -0.00919192 0.0
0.21958 -0.00818586 0.0
0.246712 0.000901851 0.0
0.241869 -0.00264714 0.0
0.246723 -0.00107067 0.0
0.234833 -0.00583699 0.0
0.232675 0.00395123 0.0
0.24224 0.00272186 0.0
0 0 0.0
0.0456788 -0.00279791 0.0
0.101545 -0.0152245 0.0
0.0856104 -0.0101483 0.0
0.196029 0.00878461 0.0
0.215831 0.00808831 0.0
0.175542 0.0158761 0.0
0.148205 0.0140527 0.0
0.121052 0.0132188 0.0
0 0 0.0
0.0405317 0.00250108 0.0
0.0818535 0.010244 0.0
0.151399 -0.016834 0.0
0.129107 -0.0216306 0.0
0.18477 -0.0163005 0.0
0.207666 -0.0143354 0.0
0.244293 0.00197376 0.0
0.220148 -0.0123985 0.0
0.245394 -0.000883595 0.0
0.24229 -0.00329093 0.0
0.235137 -0.00750293 0.0
0.23482 0.00555247 0.0
0 0 0.0
0.0556508 -0.00302495 0.0
0.114395 -0.0192692 0.0
0.101411 -0.010901 0.0
0.202624 0.0143281 0.0
0.217432 0.0124524 0.0
0.183994 0.0230766 0.0
0.164374 0.0239324 0.0
0.142362 0.023577 0.0
0.125922 0.0198044 0.0
0.105068 0.0164347 0.0
0 0 0.0
0.0499218 0.00343194 0.0
0.0886686 0.0107492 0.0
0.134718 -0.0255267 0.0
0.164437 -0.0242337 0.0
0.193153 -0.0210694 0.0
0.210275 -0.0182622 0.0
0.235083 0.00723972 0.0
0.242588 -8.66932e-05 0.0
0.24074 0.00359726 0.0
0.218982 -0.0164349 0.0
0.233344 -0.00845449 0.0
0.240116 -0.00348646 0.0
0.226337 0.0120198 0.0
0 0 0.0
0.0673498 -0.00297391 0.0
0.135922 -0.0243951 0.0
0.1131 -0.00989071 0.0
0.200587 0.0208993 0.0
0.214365 0.0184575 0.0
0.188121 0.0269182 0.0
0.171053 0.0284064 0.0
0.146525 0.0277265 0.0
0.127518 0.0234799 0.0
0.110777 0.0183366 0.0
0 0 0.0
0.057756 0.00321411 0.0
0.0979032 0.0105274 0.0
0.151767 -0.0292113 0.0
0.171119 -0.0290804 0.0
0.199417 -0.0241707 0.0
0.23333 0.0082241 0.0
0.237562 0.00261904 0.0
0.216301 -0.0190838 0.0
0.22734 -0.0112398 0.0
0.231001 0.000292089 0.0
0.235442 -0.00392808 0.0
0.221807 0.0156366 0.0
0.195956 -0.0274523 0.0
0 0 0.0
0.0753689 -0.00245076 0.0
0.149992 -0.0266376 0.0
0.137792 -0.0153118 0.0
0.117928 -0.00707837 0.0
0.20064 0.0249104 0.0
0.176817 0.0304177 0.0
0.161386 0.030239 0.0
0.136 0.0241864 0.0
0.119528 0.0170815 0.0
0 0 0.0
0.0648307 0.00281997 0.0
0.106658 0.00834193 0.0
0.16234 -0.0302777 0.0
0.176797 -0.0308191 0.0
0.161488 -0.0270052 0.0
0.229516 0.00775826 0.0
0.223878 0.00576378 0.0
0.209619 -0.0214993 0.0
0.217299 -0.015909 0.0
0.223893 -0.00614687 0.0
0.220565 0.0150062 0.0
0.20858 0.0218842 0.0
0.184067 -0.0294394 0.0
0.196379 -0.0257139 0.0
0 0 0.0
0.075607 -0.00159013 0.0
0.153065 -0.0187668 0.0
0.125049 -0.00602028 0.0
0.146007 -0.0119832 0.0
0.190621 0.0280791 0.0
0.178104 0.029911 0.0
0.165093 0.0292808 0.0
0.149724 0.0265228 0.0
0.130813 0.0156998 0.0
0 0 0.0
0.0685768 0.00203937 0.0
0.117611 0.00698845 0.0
0.174253 -0.0279815 0.0
0.165534 -0.023487 0.0
0.217567 0.011601 0.0
0.217189 0.00277626 0.0
0.207172 -0.0187903 0.0
0.21382 -0.0120607 0.0
0.217223 -0.00445364 0.0
0.209756 0.0167121 0.0
0.194654 0.0244648 0.0
0.184779 -0.0260623 0.0
0.196043 -0.0225055 0.0
0 0 0.0
0.10212 -0.00237086 0.0
0.160319 -0.0150445 0.0
0.147857 -0.00794705 0.0
0.184974 0.0267205 0.0
0.172115 0.0267446 0.0
0.159726 0.0232046 0.0
0.146489 0.0192649 0.0
0.133915 0.00778271 0.0
0 0 0.0
0.075287 0.00161045 0.0
0.177779 -0.0231111 0.0
0.169315 -0.0194665 0.0
0.211288 0.00911665 0.0
0.210228 -0.000272213 0.0
0.203929 -0.0144767 0.0
0.205381 -0.00720945 0.0
0.203879 0.0140684 0.0
0.196501 0.0194066 0.0
0.187291 0.0225029 0.0
0.195198 -0.0185122 0.0
0.187036 -0.0214355 0.0
0 0 0.0
0.105906 -0.00152861 0.0
0.166056 -0.0110921 0.0
0.153281 -0.0058574 0.0
0.177429 0.0228897 0.0
0.168128 0.0202511 0.0
0.101662 0.00234333 0.0
0.159605 0.0150011 0.0
0.146427 0.00817644 0.0
0 0 0.0
0.178968 -0.0179107 0.0
0.173044 -0.014628 0.0
0.204763 0.00656103 0.0
0.203254 -0.000259247 0.0
0.198422 -0.0119074 0.0
0.199565 -0.00578464 0.0
0.192672 0.0154766 0.0
0.198295 0.0113636 0.0
0.178634 0.0176187 0.0
0.185865 0.0176782 0.0
0.192339 -0.0152191 0.0
0.185848 -0.0166414 0.0
0 0 0.0
0.108684 -0.000907107 0.0
0.170535 -0.0079168 0.0
0.158046 -0.00392609 0.0
0.165649 0.0109262 0.0
0.171853 0.0153011 0.0
0.10523 0.0015206 0.0
0.152611 0.0057711 0.0
0 0 0.0
0.180239 -0.0132695 0.0
0.176008 -0.0106192 0.0
0.198907 0.00504611 0.0
0.197659 -0.000328888 0.0
0.190168 -0.0120827 0.0
0.192761 -0.00811285 0.0
0.194874 -0.00445213 0.0
0.190378 0.0122161 0.0
0.194031 0.00853968 0.0
0.179573 0.0139988 0.0
0.185005 0.0131092 0.0
0.185151 -0.0123708 0.0
0 0 0.0
0.110235 -0.000702505 0.0
0.17427 -0.0052481 0.0
0.161104 -0.00270042 0.0
0.169372 0.00814199 0.0
0.174984 0.0110555 0.0
0.10787 0.000920458 0.0
0.15701 0.00393856 0.0
0 0 0.0
0.178284 -0.0075549 0.0
0.181463 -0.00878335 0.0
0.194438 0.00364169 0.0
0.193556 -0.000366897 0.0
0.190601 -0.00635003 0.0
0.187725 -0.00794724 0.0
0.19156 -0.00334591 0.0
0.190893 0.00608003 0.0
0.188588 0.00933384 0.0
0.180542 0.00998025 0.0
0.184455 0.00933204 0.0
0.18474 -0.00894981 0.0
0 0 0.0
0.111129 -0.000501312 0.0
0.176251 -0.00386933 0.0
0.16324 -0.00186019 0.0
0.172749 0.00559881 0.0
0.177288 0.00774371 0.0
0 0 0.0
0.160167 0.00260815 0.0
0.10945 0.000595621 0.0
0.182236 -0.0062607 0.0
0.179948 -0.00532637 0.0
0.186741 -0.00606955 0.0
0.19117 0.00245426 0.0
0.190539 -0.000427673 0.0
0.18965 -0.00269092 0.0
0.188873 -0.00495216 0.0
0.188649 0.00415564 0.0
0.187012 0.00650985 0.0
0.181493 0.00626555 0.0
0.184093 0.00645086 0.0
0.184494 -0.00641412 0.0
0 0 0.0
0.112086 -0.000297417 0.0
0.164489 -0.00132091 0.0
0.177895 -0.00270835 0.0
0.175503 0.00353936 0.0
0.178991 0.00528945 0.0
0 0 0.0
0.110514 0.000371641 0.0
0.161932 0.0017752 0.0
0.182703 -0.00485431 0.0
0.181201 -0.00377439 0.0
0.186012 -0.00465144 0.0
0.186872 -0.00324886 0.0
0.188864 0.00154757 0.0
0.188451 -0.000499974 0.0
0.188196 -0.00219076 0.0
0.187066 0.00271416 0.0
0.185902 0.00438978 0.0
0.181904 0.00466362 0.0
0.183846 0.00433165 0.0
0.18437 -0.00462453 0.0
0 0 0.0
0.112698 -0.000133765 0.0
0.179463 -0.0018251 0.0
0.165854 -0.000863134 0.0
0.176889 0.00248074 0.0
0.180185 0.00352817 0.0
0.111045 0.000226519 0.0
0 0 0.0
0.163479 0.00108774 0.0
0.182076 -0.00271929 0.0
0.183252 -0.00323049 0.0
0.185249 -0.00309884 0.0
0.185976 -0.00249034 0.0
0.186847 -0.00175245 0.0
0.186663 0.000608903 0.0
0.186981 -0.000581955 0.0
0.185955 0.00165915 0.0
0.184898 0.00241612 0.0
0.182354 0.00273061 0.0
0.183659 0.00280769 0.0
0.184307 -0.00338879 0.0
0 0 0.0
0.113216 -9.41989e-05 0.0
0.166453 -0.00065091 0.0
0.182755 -0.00201971 0.0
0.180081 -0.00139662 0.0
0.178054 0.00158636 0.0
0.180857 0.00250126 0.0
0.111536 0.000121096 0.0
0 0 0.0
0.164406 0.000701367 0.0
0.184297 -0.00266652 0.0
0.183542 -0.00259341 0.0
0.185468 -0.00207627 0.0
0.184911 -0.00240345 0.0
0.185598 -0.00140854 0.0
0.185968 -0.000678777 0.0
0.185907 0.00024272 0.0
0.18517 0.000882575 0.0
0.184487 0.00157461 0.0
0.18254 0.00191536 0.0
0.181569 0.00139923 0.0
0.183511 0.00171442 0.0
0 0 0.0
0.167177 -0.000543926 0.0
0.113459 -0.000198979 0.0
0.183209 -0.00164107 0.0
0.18089 -0.00107471 0.0
0.178797 0.000955691 0.0
0 0 0.0
0.111794 2.70446e-05 0.0
0.165093 0.00036883 0.0
0.18432 -0.00216744 0.0
0.183885 -0.00190971 0.0
0.185104 -0.00180355 0.0
0.184702 -0.00196628 0.0
0.185178 -0.00133393 0.0
0.18527 -0.000794105 0.0
0.185314 -6.42325e-05 0.0
0.181825 0.000880884 0.0
0.183407 0.00102278 0.0
0.184621 0.000301823 0.0
0.184162 0.00092656 0.0
0.182675 0.0011011 0.0
0 0 0.0
0.113321 -0.00015239 0.0
0.167458 -0.000508079 0.0
0.183605 -0.00134713 0.0
0.181396 -0.000916576 0.0
0.165408 0.000165508 0.0
0.179262 0.000460722 0.0
0 0 0.0
0.112144 -4.54598e-05 0.0
0.184369 -0.00179926 0.0
0.184137 -0.00160124 0.0
0.184793 -0.00160704 0.0
0.184588 -0.00172294 0.0
0.184856 -0.00131428 0.0
0.184783 -0.000931697 0.0
0.184563 -0.000524996 0.0
0.182036 0.000396793 0.0
0.184216 -0.00015377 0.0
0.183304 0.000487181 0.0
0.183768 0.000146105 0.0
0.18275 0.000383349 0.0
0 0 0.0
0.167888 -0.000470008 0.0
0.114065 -9.73744e-05 0.0
0.184002 -0.00116395 0.0
0.181806 -0.000837787 0.0
0.16555 2.68617e-05 0.0
0.179577 0.000147868 0.0
0 0 0.0
0.111721 1.8409e-05 0.0
0.18435 -0.0014438 0.0
0.184444 -0.0016084 0.0
0.184603 -0.00154372 0.0
0.184573 -0.00135085 0.0
0.18454 -0.00161993 0.0
0.184448 -0.00109022 0.0
0.184229 -0.000803718 0.0
0.183921 -0.000524048 0.0
0.184358 -0.00133144 0.0
0.18214 2.79202e-05 0.0
0.183551 -0.000289408 0.0
0.183148 -0.000122435 0.0
0.182739 5.83214e-05 0.0
0 0 0.0
0.168333 -0.000449327 0.0
0.114263 -0.000185902 0.0
0.184247 -0.00112815 0.0
0.182128 -0.000820366 0.0
0.165626 -0.000108903 0.0
0.179697 -5.08464e-05 0.0
0 0 0.0
0.111802 -5.67554e-05 0.0
0.184561 -0.00139543 0.0
0.184545 -0.00154621 0.0
0.184483 -0.0015725 0.0
0.184545 -0.0016335 0.0
0.184321 -0.00152926 0.0
0.184155 -0.00111963 0.0
0.183886 -0.000894729 0.0
0.183565 -0.000682148 0.0
0.184122 -0.00138945 0.0
0.18214 -0.000261199 0.0
0.183216 -0.000505468 0.0
0.182944 -0.00042811 0.0
0.182668 -0.000373849 0.0
0 0 0.0
0.16858 -0.000481002 0.0
0.114432 -0.00017396 0.0
0.18454 -0.00114948 0.0
0.182474 -0.00085435 0.0
0.179723 -0.000262915 0.0
0.165601 -0.000234474 0.0
0 0 0.0
0.111945 -0.000158174 0.0
0.184777 -0.00144158 0.0
0.184667 -0.00158711 0.0
0.184216 -0.00172028 0.0
0.184588 -0.0017351 0.0
0.184437 -0.00169028 0.0
0.183866 -0.00121851 0.0
0.183567 -0.00103828 0.0
0.183243 -0.000866646 0.0
0.18397 -0.00163035 0.0
0.182076 -0.000498148 0.0
0.182915 -0.000715484 0.0
0.182551 -0.00066196 0.0
0 0 0.0
0.114401 -0.000201252 0.0
0.168941 -0.000552176 0.0
0.182862 -0.000918594 0.0
0.185013 -0.00156666 0.0
0.184822 -0.00123983 0.0
0.179631 -0.000429002 0.0
0.165473 -0.000286246 0.0
0.111569 -8.78773e-05 0.0
0 0 0.0
0.18465 -0.00188151 0.0
0.184819 -0.00171902 0.0
0.184169 -0.0019127 0.0
0.184424 -0.00188618 0.0
0.183064 -0.00117968 0.0
0.183688 -0.00149886 0.0
0.183379 -0.0013439 0.0
0.18386 -0.00191296 0.0
0.182402 -0.000922721 0.0
0.181902 -0.000744846 0.0
0.1827 -0.00110098 0.0
0 0 0.0
0.115035 -0.000218543 0.0
0.169382 -0.000626707 0.0
0.183161 -0.00102638 0.0
0.185204 -0.00170778 0.0
0.185228 -0.00144675 0.0
0.179471 -0.000571948 0.0
0.165228 -0.000345553 0.0
0.111258 -0.000113399 0.0
0 0 0.0
0.179368 -0.000713836 0.0
0.184729 -0.0020697 0.0
0.185048 -0.00201595 0.0
0.184457 -0.00227813 0.0
0.184137 -0.00213839 0.0
0.182812 -0.00159724 0.0
0.183206 -0.00165683 0.0
0.183536 -0.00180684 0.0
0.18376 -0.0022449 0.0
0.182212 -0.00117367 0.0
0.181712 -0.000947549 0.0
0.182501 -0.001395 0.0
0 0 0.0
0.11545 -0.000202445 0.0
0.169903 -0.000739605 0.0
0.183569 -0.00121107 0.0
0.185492 -0.00195571 0.0
0.185597 -0.00168567 0.0
0.110913 -0.000117626 0.0
0.165102 -0.00042282 0.0
0 0 0.0
0.179023 -0.0008358 0.0
0.184854 -0.00239283 0.0
0.185266 -0.00233423 0.0
0.184509 -0.0026465 0.0
0.184103 -0.00249443 0.0
0.182634 -0.00187191 0.0
0.183033 -0.00199073 0.0
0.183671 -0.00263575 0.0
0.183331 -0.00231404 0.0
0.182026 -0.00136211 0.0
0.181461 -0.00115759 0.0
0.182272 -0.00169206 0.0
0 0 0.0
0.116066 -0.000263906 0.0
0.170342 -0.00091829 0.0
0.184066 -0.00147635 0.0
0.185888 -0.00238119 0.0
0.18551 -0.00274407 0.0
0.186018 -0.00200824 0.0
0.110842 -0.000187597 0.0
0.164679 -0.000547275 0.0
0 0 0.0
0.178714 -0.000996432 0.0
0.18505 -0.00294126 0.0
0.184559 -0.00300595 0.0
0.184083 -0.0029229 0.0
0.183594 -0.00297509 0.0
0.182444 -0.0021581 0.0
0.182828 -0.00237008 0.0
0.183173 -0.00272443 0.0
0.181185 -0.00137584 0.0
0.18175 -0.00163026 0.0
0.181999 -0.00200978 0.0
0 0 0.0
0.116541 -0.000474444 0.0
0.171119 -0.00114394 0.0
0.184685 -0.00181138 0.0
0.186181 -0.0027172 0.0
0.185778 -0.00323106 0.0
0.186496 -0.00239777 0.0
0.110525 -0.000293476 0.0
0.164361 -0.000656718 0.0
0 0 0.0
0.180855 -0.00154912 0.0
0.163813 -0.000721571 0.0
0.178186 -0.00117724 0.0
0.185223 -0.00349348 0.0
0.184607 -0.00340322 0.0
0.184043 -0.00368526 0.0
0.18352 -0.00334897 0.0
0.183043 -0.00308826 0.0
0.182181 -0.00253411 0.0
0.182521 -0.00296953 0.0
0.181323 -0.00198386 0.0
0.181732 -0.0023111 0.0
0.18539 -0.00400388 0.0
0 0 0.0
0.117287 -0.000557515 0.0
0.18544 -0.00219315 0.0
0.171935 -0.00144244 0.0
0.186101 -0.00385855 0.0
0.186695 -0.00339023 0.0
0.187014 -0.00289091 0.0
0.110242 -0.000314012 0.0
0 0 0.0
0.18102 -0.00222447 0.0
0.180441 -0.0017867 0.0
0.177892 -0.00134517 0.0
0.109439 -0.000208015 0.0
0.163506 -0.000799718 0.0
0.184687 -0.00402208 0.0
0.184011 -0.00417979 0.0
0.183385 -0.00392688 0.0
0.183273 -0.00443053 0.0
0.182884 -0.00348841 0.0
0.181858 -0.00296569 0.0
0.182227 -0.00347161 0.0
0.181415 -0.00262233 0.0
0.185533 -0.0046028 0.0
0.118008 -0.000677561 0.0
0 0 0.0
0.185996 -0.00257062 0.0
0.172785 -0.00172606 0.0
0.186444 -0.00461193 0.0
0.187074 -0.0039015 0.0
0.187666 -0.0034927 0.0
0 0 0.0
0.180552 -0.00255524 0.0
0.179786 -0.00210516 0.0
0.177288 -0.00149047 0.0
0.109128 -0.000241774 0.0
0.16279 -0.000898736 0.0
0.184768 -0.00508375 0.0
0.183974 -0.00473027 0.0
0.183122 -0.00497907 0.0
0.182541 -0.00434816 0.0
0.18149 -0.00343961 0.0
0.181903 -0.00403669 0.0
0.180855 -0.00317293 0.0
0.185761 -0.00548697 0.0
0 0 0.0
0.119371 -0.000760684 0.0
0.186901 -0.00312844 0.0
0.173901 -0.00204864 0.0
0.188396 -0.0042407 0.0
0.18683 -0.00554178 0.0
0.187772 -0.00491465 0.0
0 0 0.0
0 0 0.0
0.179998 -0.0029415 0.0
0.179238 -0.0024181 0.0
0.176701 -0.00169976 0.0
0.162119 -0.00102832 0.0
0.10864 -0.000373836 0.0
0.184803 -0.00601672 0.0
0.18387 -0.00557207 0.0
0.181587 -0.00453924 0.0
0.182884 -0.00581382 0.0
0.182211 -0.00507185 0.0
0.181041 -0.00398062 0.0
0.180314 -0.00364615 0.0
0.184803 -0.00689499 0.0
0.185934 -0.00655254 0.0
0.120867 -0.000899047 0.0
0.175083 -0.00248943 0.0
0.187972 -0.00386759 0.0
0.189128 -0.00498011 0.0
0.187251 -0.00665547 0.0
0.188246 -0.00573753 0.0
0 0 0.0
0 0 0.0
0.178649 -0.00267464 0.0
0.179182 -0.00345997 0.0
0.161407 -0.0011766 0.0
0.175791 -0.00198078 0.0
0.108036 -0.000419166 0.0
0.183656 -0.00699791 0.0
0.182549 -0.00678611 0.0
0.179704 -0.00417223 0.0
0.181214 -0.00508642 0.0
0.181914 -0.00570083 0.0
0.180309 -0.00480401 0.0
0.184772 -0.0078543 0.0
0.186197 -0.0083315 0.0
0.187671 -0.00804845 0.0
0.122354 -0.00126845 0.0
0.176826 -0.00315933 0.0
0.189546 -0.00506906 0.0
0.190123 -0.00609148 0.0
0.189119 -0.00736747 0.0
0 0 0.0
0 0 0.0
0.177703 -0.00309142 0.0
0.17842 -0.0039318 0.0
0.160484 -0.00134317 0.0
0.175011 -0.00223092 0.0
0.107192 -0.000464074 0.0
0.181558 -0.00638986 0.0
0.182121 -0.00787044 0.0
0.183354 -0.00823011 0.0
0.178983 -0.00474412 0.0
0.180672 -0.00585706 0.0
0.179638 -0.00551059 0.0
0.177547 -0.00443355 0.0
0.184548 -0.0099005 0.0
0 0 0.0
0.186233 -0.0100103 0.0
0.189875 -0.00903292 0.0
0.188049 -0.0097015 0.0
0.12462 -0.00166151 0.0
0.191013 -0.00619687 0.0
0.179298 -0.00427113 0.0
0.191453 -0.0079802 0.0
0 0 0.0
0 0 0.0
0 0 0.0
0 0 0.0
0 0 0.0
0.106351 -0.000496422 0.0
0.174209 -0.0024916 0.0
0.176796 -0.00347253 0.0
0.159641 -0.0014451 0.0
0.180991 -0.00735609 0.0
0.181545 -0.0091105 0.0
0.182967 -0.00962419 0.0
0.178995 -0.00611301 0.0
0.178132 -0.00536898 0.0
0.179703 -0.0070728 0.0
0.177317 -0.00593091 0.0
0.176784 -0.00482206 0.0
0.184167 -0.0116844 0.0
0.186177 -0.0118951 0.0
0 0 0.0
-0.000387715 0.00017478 0.0
0 0 0.0
-0.000164921 0.00151309 0.0
0.188375 -0.011767 0.0
0.1905 -0.0105553 0.0
0.127691 -0.00222633 0.0
0.192805 -0.00785753 0.0
0.181972 -0.00567528 0.0
0.192842 -0.0100981 0.0
0 0 0.0
0 0 0.0
0 0 0.0
-9.38339e-05 0.00124564 0.0
-0.00013094 0.000809027 0.0
-0.000497051 0.000517549 0.0
0 0 0.0
0.105565 -0.00051744 0.0
0.173194 -0.00270341 0.0
0.175769 -0.00386814 0.0
0.158442 -0.0015877 0.0
0.180293 -0.00844795 0.0
0.180798 -0.0104922 0.0
0.182387 -0.0111937 0.0
0.178251 -0.00677485 0.0
0.179016 -0.00785855 0.0
0.176389 -0.00651236 0.0
0.175373 -0.00550818 0.0
0.183609 -0.0136754 0.0
0.185348 -0.0139062 0.0
0.187224 -0.013888 0.0
0 0 0.0
-0.00076992 0.000116367 0.0
0 0 0.0
0 0 0.0
-0.000455455 0.000239997 0.0
-0.000158301 -2.12809e-05 0.0
0.189148 -0.0137441 0.0
0.191223 -0.0130947 0.0
0.184989 -0.0073738 0.0
0.131514 -0.00303075 0.0
0.194986 -0.010143 0.0
0.194193 -0.012832 0.0
0 0 0.0
-5.94274e-05 0.000759149 0.0
-3.6096e-05 0.000385748 0.0
-0.000258357 0.000605142 0.0
-0.000502458 1.43615e-05 0.0
0 0 0.0
0.104616 -0.000560431 0.0
0.172014 -0.00296853 0.0
0.174588 -0.00426721 0.0
0.157235 -0.00173189 0.0
0.179419 -0.00963965 0.0
0.17984 -0.0119895 0.0
0.181575 -0.0129511 0.0
0.176831 -0.0079353 0.0
0.178225 -0.00867119 0.0
0.175139 -0.00723643 0.0
0.173314 -0.00469214 0.0
0.174067 -0.00608004 0.0
0.182921 -0.0154504 0.0
0.185543 -0.0158776 0.0
0.188452 -0.0163328 0.0
0 0 0.0
-0.000604789 -0.000156623 0.0
0 0 0.0
0 0 0.0
0 0 0.0
0 0 0.0
0.000416774 -0.0020511 0.0
-0.000464874 0.00288167 0.0
-0.000750917 0.0005994 0.0
-0.000590251 -0.00351353 0.0
-7.26333e-05 -0.00255016 0.0
0 0 0.0
-0.00140119 0.0116332 0.0
0.191796 -0.0171815 0.0
0.195238 -0.0155736 0.0
0 0 0.0
0.137192 -0.00447642 0.0
0.189128 -0.00972535 0.0
0.197961 -0.0141655 0.0
0 0 0.0
0 0 0.0
0.000246983 -0.000789502 0.0
0.000227864 -0.000689104 0.0
0.000330469 -0.000838277 0.0
0 0 0.0
0.103588 -0.000619324 0.0
0.170513 -0.00329461 0.0
0.155944 -0.00189167 0.0
0.172122 -0.00501273 0.0
0.178342 -0.0109236 0.0
0.178945 -0.0131949 0.0
0.180491 -0.0148919 0.0
0.175775 -0.00867402 0.0
0.177063 -0.00974611 0.0
0.173737 -0.00796771 0.0
0.172969 -0.00649762 0.0
0.186527 -0.0180856 0.0
0.181988 -0.0173767 0.0
0.184321 -0.0197426 0.0
0.18779 -0.0207563 0.0
0.191869 -0.0215072 0.0
0 0 0.0
3.11194e-05 -0.000354975 0.0
-0.00131079 0.00870288 0.0
-0.00288589 0.00543202 0.0
-0.000717691 0.00423829 0.0
0.00107011 -0.00474628 0.0
0.00281312 -0.00574149 0.0
-0.00159059 0.00110179 0.0
-0.0014621 -0.00424229 0.0
0.000136281 -0.00776845 0.0
-0.0017385 0.0160079 0.0