# vtk DataFile Version 3.0
Mesh NS-CD Problem
ASCII
DATASET UNSTRUCTURED_GRID
POINTS 10839 float
-2 0.3 0.0
-2 0.4 0.0
-2 0.35 0.0
-2 0.45 0.0
-2 0.5 0.0
-2 0.55 0.0
-2 0 0.0
-2 0.05 0.0
-2 0.85 0.0
-2 0.9 0.0
-2 0.1 0.0
-2 0.15 0.0
-2 0.25 0.0
-2 0.2 0.0
-1.96653 0.266667 0.0
-1.96524 0.415385 0.0
-1.96485 0.315 0.0
-1.96348 0.363636 0.0
-1.96414 0.464286 0.0
-2 0.6 0.0
-1.96538 0.584615 0.0
-1.96538 0.538462 0.0
-1.94979 0 0.0
-1.96653 0.0666666 0.0
-1.93306 0.0333333 0.0
-2 0.8 0.0
-2 0.75 0.0
-2 0.7 0.0
-2 0.65 0.0
-1.96249 0.7375 0.0
-1.96666 0.833333 0.0
-2 1 0.0
-2 0.95 0.0
-1.96249 0.8875 0.0
-1.96666 0.933333 0.0
-1.96234 0.1125 0.0
-1.96653 0.166667 0.0
-1.93724 0.225 0.0
-1.92971 0.28 0.0
-1.93048 0.380769 0.0
-1.93048 0.423077 0.0
-1.89958 0.3375 0.0
-1.9292 0.484203 0.0
-1.92117 0.530907 0.0
-1.96363 0.636364 0.0
-1.93076 0.576923 0.0
-1.89958 0 0.0
-1.88703 0.0375 0.0
-1.90963 0.08 0.0
-1.86611 0.0666666 0.0
-1.93749 0.775 0.0
-1.93635 0.672727 0.0
-1.92999 0.72 0.0
-1.93332 0.866667 0.0
-1.92856 0.821429 0.0
-1.94999 1 0.0
-1.92499 0.9625 0.0
-1.92499 0.925 0.0
-1.89998 0.9 0.0
-1.89958 0.125 0.0
-1.92827 0.178571 0.0
-1.89958 0.233333 0.0
-1.89045 0.290909 0.0
-1.86096 0.311538 0.0
-1.89241 0.392857 0.0
-1.89334 0.448489 0.0
-1.85655 0.357143 0.0
-1.89614 0.653846 0.0
-1.89427 0.504121 0.0
-1.8952 0.559753 0.0
-1.89614 0.615385 0.0
-1.84937 0 0.0
-1.83264 0.0333333 0.0
-1.85655 0.107143 0.0
-1.81172 0.075 0.0
-1.89998 0.766667 0.0
-1.89089 0.709091 0.0
-1.87498 0.85 0.0
-1.85998 0.79 0.0
-1.88748 0.8125 0.0
-1.89998 1 0.0
-1.88748 0.9625 0.0
-1.86664 0.933333 0.0
-1.85712 0.892857 0.0
-1.87448 0.15 0.0
-1.86611 0.194444 0.0
-1.83264 0.133333 0.0
-1.83264 0.2625 0.0
-1.82068 0.321429 0.0
-1.85664 0.404762 0.0
-1.85674 0.452381 0.0
-1.85683 0.5 0.0
-1.81184 0.375 0.0
-1.85712 0.642857 0.0
-1.85693 0.547619 0.0
-1.85702 0.595238 0.0
-1.79917 0 0.0
-1.78482 0.0357143 0.0
-1.79917 0.116667 0.0
-1.76569 0.0666666 0.0
-1.85452 0.745455 0.0
-1.82689 0.692308 0.0
-1.81815 0.781818 0.0
-1.82497 0.825 0.0
-1.84997 1 0.0
-1.8333 0.958333 0.0
-1.81247 0.8875 0.0
-1.81247 0.925 0.0
-1.81742 0.218182 0.0
-1.82427 0.175 0.0
-1.77634 0.145455 0.0
-1.79144 0.242308 0.0
-1.78482 0.285714 0.0
-1.77469 0.332653 0.0
-1.81215 0.529762 0.0
-1.81194 0.422619 0.0
-1.81203 0.470238 0.0
-1.76714 0.392857 0.0
-1.81234 0.625 0.0
-1.79732 0.571429 0.0
-1.74896 0 0.0
-1.73222 0.0333333 0.0
-1.75398 0.105 0.0
-1.71883 0.07 0.0
-1.79227 0.730769 0.0
-1.78007 0.679121 0.0
-1.75765 0.769231 0.0
-1.78178 0.818182 0.0
-1.78996 0.86 0.0
-1.79996 1 0.0
-1.78568 0.964286 0.0
-1.76663 0.922222 0.0
-1.76569 0.1875 0.0
-1.73222 0.15 0.0
-1.74896 0.25 0.0
-1.73714 0.304762 0.0
-1.76743 0.537202 0.0
-1.72869 0.343878 0.0
-1.76732 0.485119 0.0
-1.76723 0.440476 0.0
-1.72243 0.410714 0.0
-1.76757 0.607143 0.0
-1.69875 0 0.0
-1.68369 0.035 0.0
-1.69875 0.1125 0.0
-1.66528 0.075 0.0
-1.74341 0.708974 0.0
-1.73324 0.665934 0.0
-1.70441 0.74478 0.0
-1.71423 0.785714 0.0
-1.72303 0.826923 0.0
-1.74541 0.854545 0.0
-1.74541 0.890909 0.0
-1.74996 1 0.0
-1.73745 0.9625 0.0
-1.71359 0.927273 0.0
-1.68716 0.153846 0.0
-1.7131 0.214286 0.0
-1.70725 0.275 0.0
-1.69712 0.321939 0.0
-1.72279 0.589286 0.0
-1.72261 0.5 0.0
-1.7227 0.544643 0.0
-1.6827 0.355102 0.0
-1.67773 0.428571 0.0
-1.70763 0.464286 0.0
-1.70369 0.62449 0.0
-1.64854 0 0.0
-1.63181 0.0375 0.0
-1.64137 0.142857 0.0
-1.61764 0.0769231 0.0
-1.69458 0.703846 0.0
-1.67471 0.657437 0.0
-1.66143 0.727637 0.0
-1.67125 0.768571 0.0
-1.67851 0.821429 0.0
-1.68841 0.861538 0.0
-1.70904 0.890909 0.0
-1.69995 1 0.0
-1.68176 0.963636 0.0
-1.67267 0.927273 0.0
-1.65427 0.187143 0.0
-1.66718 0.231429 0.0
-1.66554 0.3 0.0
-1.67802 0.571429 0.0
-1.67792 0.523809 0.0
-1.6367 0.366327 0.0
-1.63682 0.423469 0.0
-1.62568 0.502976 0.0
-1.6629 0.470238 0.0
-1.65254 0.618367 0.0
-1.6059 0.307143 0.0
-1.59833 0 0.0
-1.58288 0.0384615 0.0
-1.60563 0.169643 0.0
-1.58179 0.112271 0.0
-1.56964 0.0714286 0.0
-1.64574 0.690385 0.0
-1.62827 0.751429 0.0
-1.63371 0.791071 0.0
-1.64279 0.857143 0.0
-1.65378 0.896154 0.0
-1.64994 1 0.0
-1.6363 0.963636 0.0
-1.61916 0.930769 0.0
-1.61345 0.209107 0.0
-1.62126 0.248571 0.0
-1.56989 0.196429 0.0
-1.63324 0.553571 0.0
-1.58846 0.535714 0.0
-1.59408 0.361905 0.0
-1.59161 0.402211 0.0
-1.58832 0.464286 0.0
-1.61504 0.598581 0.0
-1.59683 0.64359 0.0
-1.57899 0.274107 0.0
-1.56176 0.322381 0.0
-1.54812 0 0.0
-1.53378 0.0357143 0.0
-1.54593 0.147619 0.0
-1.53385 0.0732143 0.0
-1.53393 0.110714 0.0
-1.58522 0.704286 0.0
-1.58709 0.745 0.0
-1.58896 0.785714 0.0
-1.60695 0.830357 0.0
-1.60707 0.892857 0.0
-1.59993 1 0.0
-1.58454 0.965385 0.0
-1.57135 0.928571 0.0
-1.55209 0.241071 0.0
-1.5291 0.198214 0.0
-1.56936 0.570918 0.0
-1.54369 0.517857 0.0
-1.5464 0.380952 0.0
-1.54564 0.427721 0.0
-1.54488 0.47449 0.0
-1.55026 0.606122 0.0
-1.54222 0.677143 0.0
-1.52943 0.282857 0.0
-1.52143 0.33619 0.0
-1.49792 0 0.0
-1.49802 0.05 0.0
-1.49822 0.15 0.0
-1.49312 0.1 0.0
-1.5423 0.717143 0.0
-1.54419 0.767857 0.0
-1.54727 0.819048 0.0
-1.57122 0.861905 0.0
-1.53553 0.914286 0.0
-1.54992 1 0.0
-1.53563 0.964286 0.0
-1.49842 0.25 0.0
-1.48831 0.2 0.0
-1.5214 0.558929 0.0
-1.49891 0.5 0.0
-1.49871 0.4 0.0
-1.47631 0.45 0.0
-1.49911 0.6 0.0
-1.49921 0.65 0.0
-1.49931 0.7 0.0
-1.48111 0.35 0.0
-1.48351 0.3 0.0
-1.44771 0 0.0
-1.44782 0.05 0.0
-1.44804 0.15 0.0
-1.44793 0.1 0.0
-1.49941 0.75 0.0
-1.49951 0.8 0.0
-1.49981 0.95 0.0
-1.49961 0.85 0.0
-1.49971 0.9 0.0
-1.49991 1 0.0
-1.44826 0.25 0.0
-1.43815 0.2 0.0
-1.47151 0.55 0.0
-1.44881 0.5 0.0
-1.44859 0.4 0.0
-1.42619 0.45 0.0
-1.44913 0.65 0.0
-1.44902 0.6 0.0
-1.44935 0.75 0.0
-1.44924 0.7 0.0
-1.43972 0.35 0.0
-1.43336 0.3 0.0
-1.3975 0 0.0
-1.39762 0.05 0.0
-1.39786 0.15 0.0
-1.39274 0.1 0.0
-1.44957 0.85 0.0
-1.44946 0.8 0.0
-1.4523 0.95 0.0
-1.44968 0.9 0.0
-1.4499 1 0.0
-1.3981 0.25 0.0
-1.38798 0.2 0.0
-1.42141 0.55 0.0
-1.3987 0.5 0.0
-1.39834 0.35 0.0
-1.37845 0.4 0.0
-1.37607 0.45 0.0
-1.40784 0.65 0.0
-1.39894 0.6 0.0
-1.41185 0.75 0.0
-1.39918 0.7 0.0
-1.38322 0.3 0.0
-1.34729 0 0.0
-1.34492 0.05 0.0
-1.34018 0.15 0.0
-1.34255 0.1 0.0
-1.40707 0.85 0.0
-1.39941 0.8 0.0
-1.39977 0.95 0.0
-1.39965 0.9 0.0
-1.39989 1 0.0
-1.33781 0.2 0.0
-1.33544 0.25 0.0
-1.37131 0.55 0.0
-1.34859 0.5 0.0
-1.33833 0.4 0.0
-1.3307 0.35 0.0
-1.32595 0.45 0.0
-1.34885 0.6 0.0
-1.36655 0.65 0.0
-1.36179 0.75 0.0
-1.34911 0.7 0.0
-1.33307 0.3 0.0
-1.29708 0 0.0
-1.29722 0.05 0.0
-1.2975 0.15 0.0
-1.29236 0.1 0.0
-1.35703 0.85 0.0
-1.34937 0.8 0.0
-1.34988 1 0.0
-1.34962 0.9 0.0
-1.35226 0.95 0.0
-1.28528 0.25 0.0
-1.28764 0.2 0.0
-1.28931 0.35 0.0
-1.32121 0.55 0.0
-1.29848 0.5 0.0
-1.28709 0.45 0.0
-1.2982 0.4 0.0
-1.29876 0.6 0.0
-1.31647 0.65 0.0
-1.29918 0.75 0.0
-1.29904 0.7 0.0
-1.28292 0.3 0.0
-1.24687 0 0.0
-1.24702 0.05 0.0
-1.24717 0.1 0.0
-1.24732 0.15 0.0
-1.29946 0.85 0.0
-1.29932 0.8 0.0
-1.29987 1 0.0
-1.29974 0.95 0.0
-1.30462 0.9 0.0
-1.24762 0.25 0.0
-1.23747 0.2 0.0
-1.24792 0.35 0.0
-1.22807 0.4 0.0
-1.27111 0.55 0.0
-1.24837 0.5 0.0
-1.24822 0.45 0.0
-1.24867 0.6 0.0
-1.26639 0.65 0.0
-1.26167 0.75 0.0
-1.24897 0.7 0.0
-1.23277 0.3 0.0
-1.19667 0 0.0
-1.19683 0.05 0.0
-1.18964 0.15 0.0
-1.19198 0.1 0.0
-1.25695 0.85 0.0
-1.24927 0.8 0.0
-1.25223 0.95 0.0
-1.24987 1 0.0
-1.24957 0.9 0.0
-1.1873 0.2 0.0
-1.18496 0.25 0.0
-1.18028 0.35 0.0
-1.17794 0.4 0.0
-1.1981 0.45 0.0
-1.19842 0.55 0.0
-1.19826 0.5 0.0
-1.19858 0.6 0.0
-1.19874 0.65 0.0
-1.19906 0.75 0.0
-1.1989 0.7 0.0
-1.18262 0.3 0.0
-1.14646 0 0.0
-1.14663 0.05 0.0
-1.1418 0.1 0.0
-1.13713 0.2 0.0
-1.14697 0.15 0.0
-1.20691 0.85 0.0
-1.20926 0.8 0.0
-1.20221 0.95 0.0
-1.19986 1 0.0
-1.20456 0.9 0.0
-1.13997 0.3 0.0
-1.14731 0.25 0.0
-1.13781 0.4 0.0
-1.13014 0.35 0.0
-1.12548 0.45 0.0
-1.14815 0.5 0.0
-1.15962 0.55 0.0
-1.14849 0.6 0.0
-1.15745 0.65 0.0
-1.16155 0.75 0.0
-1.14917 0.8 0.0
-1.14883 0.7 0.0
-1.09625 0 0.0
-1.09661 0.1 0.0
-1.09393 0.05 0.0
-1.09697 0.2 0.0
-1.08929 0.15 0.0
-1.15687 0.85 0.0
-1.14985 1 0.0
-1.15219 0.95 0.0
-1.14951 0.9 0.0
-1.09733 0.3 0.0
-1.08465 0.25 0.0
-1.09769 0.4 0.0
-1.08 0.35 0.0
-1.08661 0.45 0.0
-1.09804 0.5 0.0
-1.12082 0.55 0.0
-1.10916 0.8 0.0
-1.10629 0.7 0.0
-1.0984 0.6 0.0
-1.11616 0.65 0.0
-1.11149 0.75 0.0
-1.04604 0 0.0
-1.04623 0.05 0.0
-1.04642 0.1 0.0
-1.0468 0.2 0.0
-1.03911 0.15 0.0
-1.09948 0.9 0.0
-1.0993 0.85 0.0
-1.09984 1 0.0
-1.09966 0.95 0.0
-1.04718 0.3 0.0
-1.03449 0.25 0.0
-1.04756 0.4 0.0
-1.02986 0.35 0.0
-1.04775 0.45 0.0
-1.04794 0.5 0.0
-1.04813 0.55 0.0
-1.05911 0.8 0.0
-1.04831 0.6 0.0
-1.06376 0.7 0.0
-1.0485 0.65 0.0
-1.04888 0.75 0.0
-0.995833 0 0.0
-0.991231 0.1 0.0
-0.996033 0.05 0.0
-0.986629 0.2 0.0
-0.98893 0.15 0.0
-1.05447 0.9 0.0
-1.04926 0.85 0.0
-1.04983 1 0.0
-1.04964 0.95 0.0
-0.984328 0.25 0.0
-0.99703 0.3 0.0
-0.997429 0.4 0.0
-0.997628 0.45 0.0
-0.979726 0.35 0.0
-0.997827 0.5 0.0
-0.998027 0.55 0.0
-0.998226 0.6 0.0
-0.961416 0.475 0.0
-1.00907 0.8 0.0
-0.998426 0.65 0.0
-0.998625 0.7 0.0
-1.01138 0.75 0.0
-0.945625 0 0.0
-0.946044 0.1 0.0
-0.943334 0.05 0.0
-0.946463 0.2 0.0
-0.938752 0.15 0.0
-1.00444 0.9 0.0
-1.00675 0.85 0.0
-0.999821 1 0.0
-1.00213 0.95 0.0
-0.93417 0.25 0.0
-0.946881 0.3 0.0
-0.9473 0.4 0.0
-0.929588 0.35 0.0
-0.925005 0.45 0.0
-0.960371 0.525 0.0
-0.959325 0.575 0.0
-0.958279 0.625 0.0
-0.922714 0.5 0.0
-0.959017 0.8 0.0
-0.957233 0.675 0.0
-0.952999 0.7125 0.0
-0.948766 0.75 0.0
-0.895417 0 0.0
-0.895855 0.1 0.0
-0.893136 0.05 0.0
-0.896294 0.2 0.0
-0.888573 0.15 0.0
-0.949184 0.85 0.0
-0.954415 0.9 0.0
-0.949812 1 0.0
-0.949603 0.95 0.0
-0.884011 0.25 0.0
-0.896733 0.3 0.0
-0.874887 0.45 0.0
-0.879449 0.35 0.0
-0.897171 0.4 0.0
-0.920423 0.55 0.0
-0.918132 0.6 0.0
-0.915841 0.65 0.0
-0.872606 0.5 0.0
-0.908968 0.8 0.0
-0.91355 0.7 0.0
-0.898707 0.75 0.0
-0.845208 0 0.0
-0.845438 0.05 0.0
-0.845667 0.1 0.0
-0.845896 0.15 0.0
-0.833853 0.25 0.0
-0.846126 0.2 0.0
-0.899146 0.85 0.0
-0.904386 0.9 0.0
-0.899584 0.95 0.0
-0.899804 1 0.0
-0.838062 0.35 0.0
[...]
POINT_DATA 10839
VECTORS Velocity float
0.21 0 0.0
0.24 0 0.0
0.2275 0 0.0
0.2475 0 0.0
0.25 0 0.0
0.2475 0 0.0
0 0 0.0
0.0475 0 0.0
0.1275 0 0.0
0.09 0 0.0
0.09 0 0.0
0.1275 0 0.0
0.1875 0 0.0
0.16 0 0.0
0.195557 -2.14347e-05 0.0
0.242841 -2.87654e-05 0.0
0.215776 -2.53974e-05 0.0
0.231406 -2.8481e-05 0.0
0.248725 -3.03989e-05 0.0
0.24 0 0.0
0.24284 -2.81171e-05 0.0
0.24852 -2.90607e-05 0.0
0 0 0.0
0.0622238 -3.82178e-06 0.0
0.0322265 -2.51842e-06 0.0
0.16 0 0.0
0.1875 0 0.0
0.21 0 0.0
0.2275 0 0.0
0.193592 -2.31711e-05 0.0
0.138887 -1.30974e-05 0.0
0 0 0.0
0.0475 0 0.0
0.0998418 -9.2494e-06 0.0
0.0622207 -3.8587e-06 0.0
0.0998459 -9.82829e-06 0.0
0.13889 -1.35884e-05 0.0
0.174379 -3.37995e-05 0.0
0.201605 -4.6084e-05 0.0
0.235787 -5.56507e-05 0.0
0.244084 -5.78886e-05 0.0
0.2236 -7.48328e-05 0.0
0.24975 -5.99116e-05 0.0
0.249044 -6.62552e-05 0.0
0.231404 -2.80771e-05 0.0
0.244081 -5.59911e-05 0.0
0 0 0.0
0.0361067 -4.81838e-06 0.0
0.0736114 -1.34386e-05 0.0
0.0622463 -1.46729e-05 0.0
0.174371 -3.20185e-05 0.0
0.220162 -4.41682e-05 0.0
0.201595 -4.42219e-05 0.0
0.11555 -1.95694e-05 0.0
0.146677 -2.99018e-05 0.0
0 0 0.0
0.036088 -3.27761e-06 0.0
0.0693672 -1.04423e-05 0.0
0.0899858 -2.03323e-05 0.0
0.109389 -2.80882e-05 0.0
0.146691 -3.04085e-05 0.0
0.1789 -5.6495e-05 0.0
0.206292 -7.35432e-05 0.0
0.214498 -9.88073e-05 0.0
0.238525 -8.68453e-05 0.0
0.247349 -8.96271e-05 0.0
0.229604 -0.000110931 0.0
0.226324 -7.52635e-05 0.0
0.249982 -8.91859e-05 0.0
0.246426 -8.60529e-05 0.0
0.236681 -8.05506e-05 0.0
0 0 0.0
0.0322477 -5.44066e-06 0.0
0.0956929 -3.17902e-05 0.0
0.0694233 -2.39647e-05 0.0
0.178878 -5.30399e-05 0.0
0.206271 -7.04723e-05 0.0
0.12748 -4.12029e-05 0.0
0.165878 -6.65522e-05 0.0
0.152329 -4.82396e-05 0.0
0 0 0.0
0.036081 -4.64843e-06 0.0
0.0621992 -1.42586e-05 0.0
0.0956349 -3.13338e-05 0.0
0.127522 -4.33382e-05 0.0
0.156658 -6.2888e-05 0.0
0.115596 -4.96374e-05 0.0
0.193622 -0.000103351 0.0
0.218137 -0.000130212 0.0
0.240937 -0.000117283 0.0
0.247735 -0.000120555 0.0
0.249999 -0.000120699 0.0
0.234393 -0.00014953 0.0
0.229578 -0.000104214 0.0
0.247727 -0.000118042 0.0
0.24092 -0.000112973 0.0
0 0 0.0
0.0344821 -7.54646e-06 0.0
0.103114 -4.87017e-05 0.0
0.0622939 -2.4298e-05 0.0
0.189731 -8.27842e-05 0.0
0.212993 -0.0001145 0.0
0.170542 -8.90031e-05 0.0
0.144338 -6.66492e-05 0.0
0 0 0.0
0.0399019 -7.8446e-06 0.0
0.0997955 -4.23605e-05 0.0
0.0693289 -2.27391e-05 0.0
0.170619 -9.54001e-05 0.0
0.144416 -7.22456e-05 0.0
0.124368 -7.30993e-05 0.0
0.183643 -0.000120633 0.0
0.204124 -0.000144235 0.0
0.222031 -0.000169056 0.0
0.249107 -0.000156406 0.0
0.244022 -0.000156257 0.0
0.249116 -0.000158693 0.0
0.238543 -0.000189846 0.0
0.234355 -0.000140617 0.0
0.244882 -0.000162701 0.0
0 0 0.0
0.0322845 -7.98612e-06 0.0
0.0940627 -5.10781e-05 0.0
0.0652037 -3.04383e-05 0.0
0.196705 -0.00012147 0.0
0.217878 -0.000148659 0.0
0.177453 -0.000122195 0.0
0.148703 -8.68274e-05 0.0
0.120341 -6.15721e-05 0.0
0 0 0.0
0.0343967 -7.38042e-06 0.0
0.071657 -2.93864e-05 0.0
0.152415 -0.000104737 0.0
0.127602 -9.0597e-05 0.0
0.187569 -0.00015004 0.0
0.21194 -0.000186748 0.0
0.248602 -0.000192024 0.0
0.225674 -0.000210548 0.0
0.249777 -0.000196745 0.0
0.246467 -0.000196146 0.0
0.242052 -0.000231997 0.0
0.238492 -0.000177859 0.0
0 0 0.0
0.0338631 -9.76659e-06 0.0
0.0999756 -6.7358e-05 0.0
0.069524 -3.89936e-05 0.0
0.206273 -0.000157516 0.0
0.222414 -0.000183355 0.0
0.189997 -0.000161242 0.0
0.168277 -0.000132029 0.0
0.143027 -0.000102941 0.0
0.124213 -7.71298e-05 0.0
0.097102 -5.24538e-05 0.0
0 0 0.0
0.0360305 -9.29092e-06 0.0
0.0673341 -3.1585e-05 0.0
0.130317 -0.000108987 0.0
0.16847 -0.000147764 0.0
0.19946 -0.000193718 0.0
0.218364 -0.000226983 0.0
0.241992 -0.000217087 0.0
0.249991 -0.000234353 0.0
0.247984 -0.000227458 0.0
0.229065 -0.000254957 0.0
0.244919 -0.000275354 0.0
0.248728 -0.00024947 0.0
0.23445 -0.000218164 0.0
0 0 0.0
0.0362148 -1.15681e-05 0.0
0.122637 -0.000109589 0.0
0.0711994 -4.27796e-05 0.0
0.208368 -0.000188241 0.0
0.225138 -0.000222895 0.0
0.198076 -0.000192068 0.0
0.177757 -0.000161581 0.0
0.146559 -0.000122542 0.0
0.119163 -8.78827e-05 0.0
0.0970754 -5.95471e-05 0.0
0 0 0.0
0.0349526 -1.0646e-05 0.0
0.0673029 -3.63357e-05 0.0
0.152284 -0.000153866 0.0
0.178002 -0.0001906 0.0
0.210099 -0.000242134 0.0
0.244854 -0.000255632 0.0
0.249408 -0.000269239 0.0
0.232201 -0.000302415 0.0
0.244171 -0.000316001 0.0
0.249965 -0.000319734 0.0
0.249113 -0.000290853 0.0
0.235916 -0.000255507 0.0
0.21294 -0.000302945 0.0
0 0 0.0
0.0371335 -1.15717e-05 0.0
0.14109 -0.000154333 0.0
0.0999245 -8.30688e-05 0.0
0.0665578 -3.59589e-05 0.0
0.213652 -0.000222525 0.0
0.186649 -0.000192976 0.0
0.16513 -0.000161239 0.0
0.122284 -0.000105965 0.0
0.0929012 -6.72109e-05 0.0
0 0 0.0
0.034926 -1.26238e-05 0.0
0.0642582 -4.1694e-05 0.0
0.16558 -0.00020016 0.0
0.18695 -0.000238764 0.0
0.158109 -0.000209028 0.0
0.247078 -0.000297071 0.0
0.248664 -0.000342085 0.0
0.23102 -0.000347128 0.0
0.240489 -0.00036208 0.0
0.248719 -0.000363875 0.0
0.240199 -0.000290893 0.0
0.229269 -0.000275089 0.0
0.199162 -0.000301495 0.0
0.218603 -0.000363091 0.0
0 0 0.0
0.0346069 -8.29547e-06 0.0
0.126148 -0.000140498 0.0
0.0681233 -3.49718e-05 0.0
0.0987802 -8.17819e-05 0.0
0.208123 -0.000241731 0.0
0.189815 -0.000213279 0.0
0.16819 -0.000183578 0.0
0.140679 -0.000141456 0.0
0.0954568 -8.36849e-05 0.0
0 0 0.0
0.03327 -1.4686e-05 0.0
0.0660933 -5.50923e-05 0.0
0.183209 -0.000286394 0.0
0.159255 -0.000238162 0.0
0.244878 -0.000337761 0.0
0.249612 -0.000389789 0.0
0.235913 -0.000412133 0.0
0.244802 -0.000418001 0.0
0.249322 -0.000409584 0.0
0.238612 -0.000325474 0.0
0.218456 -0.000277355 0.0
0.203082 -0.000366132 0.0
0.223328 -0.000426758 0.0
0 0 0.0
0.0477355 -1.29261e-05 0.0
0.12791 -0.000158155 0.0
0.0903708 -6.55791e-05 0.0
0.202669 -0.000246998 0.0
0.178052 -0.000211372 0.0
0.147982 -0.0001748 0.0
0.118792 -0.000126857 0.0
0.0780793 -8.4812e-05 0.0
0 0 0.0
0.0342441 -2.04723e-05 0.0
0.187825 -0.000358309 0.0
0.160409 -0.000274203 0.0
0.246409 -0.000380472 0.0
0.249921 -0.000444092 0.0
0.240065 -0.000482772 0.0
0.247477 -0.000503115 0.0
0.239834 -0.000357136 0.0
0.22731 -0.000311244 0.0
0.209795 -0.000267817 0.0
0.227662 -0.000499709 0.0
0.210259 -0.000451767 0.0
0 0 0.0
0.047762 -9.32739e-06 0.0
0.128029 -0.000180029 0.0
0.0904446 -6.61855e-05 0.0
0.187278 -0.000232903 0.0
0.159752 -0.000202241 0.0
0.0472125 -4.40109e-05 0.0
0.127212 -0.000168158 0.0
0.0896676 -0.000117677 0.0
0 0 0.0
0.187917 -0.000431514 0.0
0.160531 -0.000328304 0.0
0.247343 -0.000425039 0.0
0.249876 -0.000499428 0.0
0.240062 -0.000566283 0.0
0.24744 -0.000580054 0.0
0.227261 -0.000316947 0.0
0.239779 -0.00037657 0.0
0.187248 -0.000230875 0.0
0.209753 -0.000266005 0.0
0.227684 -0.000576171 0.0
0.210321 -0.000546917 0.0
0 0 0.0
0.047788 -9.02707e-06 0.0
0.128177 -0.000220518 0.0
0.0905542 -7.92622e-05 0.0
0.127176 -0.000185737 0.0
0.159728 -0.000207977 0.0
0.047136 -5.42203e-05 0.0
0.0895995 -0.000137841 0.0
0 0 0.0
0.188029 -0.000531068 0.0
0.160685 -0.000408679 0.0
0.247279 -0.000459207 0.0
0.249812 -0.000557457 0.0
0.2277 -0.000670378 0.0
0.240036 -0.000714414 0.0
0.247385 -0.000669096 0.0
0.227209 -0.000310024 0.0
0.239705 -0.000385394 0.0
0.187228 -0.000215828 0.0
0.209706 -0.000242637 0.0
0.210389 -0.000670077 0.0
0 0 0.0
0.0478272 -1.42395e-05 0.0
0.128396 -0.000309559 0.0
0.090687 -0.000115344 0.0
0.127155 -0.000187146 0.0
0.159715 -0.000193888 0.0
0.0470395 -6.2811e-05 0.0
0.0895308 -0.000149933 0.0
0 0 0.0
0.160872 -0.000529962 0.0
0.188197 -0.00070784 0.0
0.247189 -0.000489874 0.0
0.249716 -0.000620791 0.0
0.24 -0.000822487 0.0
0.227718 -0.000868273 0.0
0.247297 -0.00077237 0.0
0.239604 -0.000379856 0.0
0.227144 -0.000288199 0.0
0.187205 -0.000169374 0.0
0.20965 -0.000191471 0.0
0.210461 -0.000836194 0.0
0 0 0.0
0.047888 -2.9601e-05 0.0
0.128596 -0.000420294 0.0
0.09087 -0.000187025 0.0
0.127146 -0.000163877 0.0
0.159716 -0.000147052 0.0
0 0 0.0
0.089474 -0.000141455 0.0
0.0469457 -6.5487e-05 0.0
0.18835 -0.000919156 0.0
0.161091 -0.000709658 0.0
0.22771 -0.00102915 0.0
0.247063 -0.000514513 0.0
0.24958 -0.00068974 0.0
0.247201 -0.000865659 0.0
0.239945 -0.000948083 0.0
0.239466 -0.000356295 0.0
0.227044 -0.000237227 0.0
0.18718 -5.17557e-05 0.0
0.209578 -0.000102067 0.0
0.21053 -0.00104653 0.0
0 0 0.0
0.0480012 -6.43818e-05 0.0
0.0911002 -0.000289678 0.0
0.128882 -0.000611976 0.0
0.127167 -8.05031e-05 0.0
0.159733 -4.98611e-05 0.0
0 0 0.0
0.0468548 -5.82486e-05 0.0
0.0894472 -0.00010502 0.0
0.188473 -0.00111855 0.0
0.161345 -0.000968045 0.0
0.227678 -0.00122304 0.0
0.239786 -0.00122147 0.0
0.246889 -0.000532328 0.0
0.249389 -0.000762915 0.0
0.247075 -0.000972401 0.0
0.239278 -0.000311195 0.0
0.226907 -0.000152503 0.0
0.187153 6.30859e-05 0.0
0.20948 3.47983e-05 0.0
0.210584 -0.00131969 0.0
0 0 0.0
0.0481967 -0.000110872 0.0
0.129317 -0.000937381 0.0
0.091511 -0.000481449 0.0
0.127208 3.26292e-05 0.0
0.159761 0.000112938 0.0
0.0468071 -3.76195e-05 0.0
0 0 0.0
0.0894728 -1.56852e-05 0.0
0.161628 -0.00131608 0.0
0.188676 -0.00155375 0.0
0.227576 -0.00161451 0.0
0.239597 -0.00146599 0.0
0.246848 -0.00113526 0.0
0.246527 -0.000542338 0.0
0.249129 -0.000848682 0.0
0.239026 -0.00023991 0.0
0.226646 2.41356e-05 0.0
0.1871 0.000341726 0.0
0.209342 0.000230333 0.0
0.210615 -0.00166666 0.0
0 0 0.0
0.0485029 -0.000181002 0.0
0.0920287 -0.000706136 0.0
0.161944 -0.00175629 0.0
0.129698 -0.00124902 0.0
0.127302 0.000237325 0.0
0.159782 0.000300439 0.0
0.0468156 1.43555e-06 0.0
0 0 0.0
0.0895575 9.56815e-05 0.0
0.210608 -0.00201797 0.0
0.188779 -0.00188586 0.0
0.239393 -0.00169762 0.0
0.227415 -0.00198771 0.0
0.246385 -0.00140734 0.0
0.248783 -0.000940578 0.0
0.24625 -0.000540265 0.0
0.238692 -0.000142553 0.0
0.226415 0.000172356 0.0
0.187031 0.000565611 0.0
0.159839 0.000691 0.0
0.20915 0.000487562 0.0
0 0 0.0
0.0926788 -0.00096245 0.0
0.0489728 -0.000265901 0.0
0.162222 -0.00219168 0.0
0.130376 -0.00176662 0.0
0.127459 0.000524323 0.0
0 0 0.0
0.0469116 5.22659e-05 0.0
0.0898046 0.000293437 0.0
0.210566 -0.00242398 0.0
0.188947 -0.00255961 0.0
0.239128 -0.00194799 0.0
0.227189 -0.0024222 0.0
0.246026 -0.00158625 0.0
0.248325 -0.00104494 0.0
0.245924 -0.00053425 0.0
0.159864 0.00101613 0.0
0.208927 0.000758176 0.0
0.238252 -1.8725e-05 0.0
0.226129 0.000351711 0.0
0.186911 0.000938553 0.0
0 0 0.0
0.0495595 -0.000353378 0.0
0.093569 -0.00128424 0.0
0.1626 -0.00280177 0.0
0.131101 -0.0022913 0.0
0.0901956 0.000529944 0.0
0.127736 0.000940641 0.0
0 0 0.0
0.0471426 0.000129724 0.0
0.210444 -0.00298536 0.0
0.189032 -0.00319656 0.0
0.238703 -0.00231502 0.0
0.226861 -0.00291556 0.0
0.245619 -0.00178003 0.0
0.247758 -0.0011612 0.0
0.245123 -0.000504392 0.0
0.159921 0.00150923 0.0
0.237702 0.00013069 0.0
0.208642 0.00107239 0.0
0.225518 0.00071499 0.0
0.186686 0.00151188 0.0
0 0 0.0
0.0948619 -0.0016637 0.0
0.0504077 -0.00047062 0.0
0.163133 -0.00364176 0.0
0.132017 -0.0028699 0.0
0.0907021 0.000782164 0.0
0.128099 0.00136504 0.0
0 0 0.0
0.0474814 0.000204102 0.0
0.189093 -0.00391479 0.0
0.210253 -0.00362188 0.0
0.238154 -0.00273284 0.0
0.244963 -0.00205804 0.0
0.226425 -0.00347261 0.0
0.247037 -0.00129159 0.0
0.244381 -0.000486426 0.0
0.237007 0.000297311 0.0
0.245991 -0.00184668 0.0
0.159977 0.00205809 0.0
0.2249 0.00102805 0.0
0.208055 0.0016351 0.0
0.186485 0.00190386 0.0
0 0 0.0
0.0961561 -0.00199257 0.0
0.051452 -0.000589154 0.0
0.163524 -0.00424414 0.0
0.13312 -0.00348147 0.0
0.091452 0.00106689 0.0
0.128504 0.00176697 0.0
0 0 0.0
0.0479861 0.000282635 0.0
0.18912 -0.00469774 0.0
0.209965 -0.00432866 0.0
0.237462 -0.00318688 0.0
0.225867 -0.00409096 0.0
0.243733 -0.00252066 0.0
0.245651 -0.000938155 0.0
0.240622 -6.49875e-06 0.0
0.230915 0.000887905 0.0
0.245662 -0.00151659 0.0
0.160076 0.00265735 0.0
0.21652 0.00169239 0.0
0.202611 0.00222686 0.0
0.1861 0.00262636 0.0
0 0 0.0
0.0978478 -0.002361 0.0
0.0526834 -0.00070217 0.0
0.164119 -0.0050291 0.0
0.134437 -0.00409984 0.0
0.129247 0.00233519 0.0
0.0924308 0.00136038 0.0
0 0 0.0
0.0487369 0.000377315 0.0
0.189126 -0.00553206 0.0
0.209591 -0.00509409 0.0
0.242685 -0.0028691 0.0
0.225175 -0.00475831 0.0
0.236628 -0.00369581 0.0
0.242932 -0.00046066 0.0
0.235567 0.000603783 0.0
0.223577 0.0016054 0.0
0.244517 -0.00169175 0.0
0.160202 0.0032603 0.0
0.206971 0.00247658 0.0
0.185699 0.00323209 0.0
0 0 0.0
0.0540274 -0.000805658 0.0
0.0997885 -0.00270629 0.0
0.135762 -0.00461201 0.0
0.189137 -0.00639308 0.0
0.164812 -0.00581949 0.0
0.130059 0.00282364 0.0
0.093614 0.00164192 0.0
0.0495563 0.000471686 0.0
0 0 0.0
0.224501 -0.00535131 0.0
0.209127 -0.00590746 0.0
0.241742 -0.00316841 0.0
0.235623 -0.00424588 0.0
0.222562 0.00197987 0.0
0.241765 -0.000445691 0.0
0.234438 0.000802572 0.0
0.243187 -0.00188862 0.0
0.185273 0.0038421 0.0
0.160467 0.00397555 0.0
0.205909 0.00315697 0.0
0 0 0.0
0.0556638 -0.000895939 0.0
0.102234 -0.0030342 0.0
0.137529 -0.00519317 0.0
0.189151 -0.00706759 0.0
0.165861 -0.00676026 0.0
0.13106 0.00326802 0.0
0.0951651 0.00192197 0.0
0.0505718 0.000549277 0.0
0 0 0.0
0.132286 0.0036517 0.0
0.223737 -0.00596354 0.0
0.208409 -0.00702191 0.0
0.233947 -0.00508706 0.0
0.240691 -0.00348514 0.0
0.220925 0.00249719 0.0
0.233121 0.00100301 0.0
0.240401 -0.00044807 0.0
0.241648 -0.0021142 0.0
0.184815 0.00444548 0.0
0.160786 0.00450765 0.0
0.204936 0.00367012 0.0
0 0 0.0
0.0574299 -0.000964776 0.0
0.104728 -0.00330239 0.0
0.139537 -0.00570615 0.0
0.18922 -0.00793453 0.0
0.16691 -0.0074938 0.0
0.0516424 0.000597539 0.0
0.0967631 0.00210619 0.0
0 0 0.0
0.133424 0.00390652 0.0
0.22269 -0.00674685 0.0
0.207786 -0.00790241 0.0
0.232532 -0.00572947 0.0
0.239155 -0.00393373 0.0
0.21976 0.00279085 0.0
0.231615 0.00119107 0.0
0.239906 -0.00236741 0.0
0.238067 -0.000482707 0.0
0.184465 0.00485433 0.0
0.161228 0.00494757 0.0
0.203875 0.00416513 0.0
0 0 0.0
0.0593596 -0.0010355 0.0
0.107405 -0.00352284 0.0
0.14215 -0.00621495 0.0
0.189429 -0.00898896 0.0
0.207131 -0.00878831 0.0
0.168183 -0.00816378 0.0
0.0528163 0.000626518 0.0
0.0985046 0.00222494 0.0
0 0 0.0
0.134948 0.00408893 0.0
0.221093 -0.00784207 0.0
0.231278 -0.00627861 0.0
0.237429 -0.00441325 0.0
0.238451 -0.00258495 0.0
0.218503 0.00307604 0.0
0.229897 0.00134449 0.0
0.236183 -0.00053702 0.0
0.161847 0.00527623 0.0
0.184044 0.00532086 0.0
0.20273 0.00460479 0.0
0 0 0.0
0.0614182 -0.00111562 0.0
0.110277 -0.00368272 0.0
0.144707 -0.00656385 0.0
0.189646 -0.00958001 0.0
0.206487 -0.00965301 0.0
0.169684 -0.00875305 0.0
0.0540537 0.000624299 0.0
0.10037 0.0022705 0.0
0 0 0.0
0.162417 0.00543338 0.0
0.102259 0.00223989 0.0
0.136848 0.00412881 0.0
0.219775 -0.00869111 0.0
0.229918 -0.00683277 0.0
0.234558 -0.00517273 0.0
0.236884 -0.00281646 0.0
0.234586 -0.0006078 0.0
0.216841 0.00338187 0.0
0.22718 0.00151817 0.0
0.183608 0.00574682 0.0
0.201715 0.00491039 0.0
0.218645 -0.00936328 0.0
0 0 0.0
0.063483 -0.00114118 0.0
0.1475 -0.00680705 0.0
0.113253 -0.00379363 0.0
0.205888 -0.0104809 0.0
0.190209 -0.0104621 0.0
0.171418 -0.00923254 0.0
0.0553813 0.000612642 0.0
0 0 0.0
0.183434 0.0058613 0.0
0.163324 0.00546733 0.0
0.138669 0.00397749 0.0
0.0564444 0.000595284 0.0
0.104141 0.00209229 0.0
0.228102 -0.00755491 0.0
0.232852 -0.00561341 0.0
0.234599 -0.0031664 0.0
0.232751 -0.00346238 0.0
0.232855 -0.000697723 0.0
0.215044 0.00359869 0.0
0.225002 0.0015672 0.0
0.200708 0.00513076 0.0
0.217486 -0.0100235 0.0
0.0654407 -0.00116562 0.0
0 0 0.0
0.149975 -0.00694401 0.0
0.116296 -0.00384491 0.0
0.205374 -0.0112305 0.0
0.190708 -0.0109145 0.0
0.173409 -0.00960112 0.0
0 0 0.0
0.183322 0.00586813 0.0
0.164578 0.00522324 0.0
0.140187 0.00373971 0.0
0.0574934 0.000513109 0.0
0.105882 0.0018704 0.0
0.225303 -0.00858613 0.0
0.231047 -0.00606213 0.0
0.2308 -0.0037797 0.0
0.2293 -0.000953173 0.0
0.213176 0.00371568 0.0
0.222688 0.00152943 0.0
0.199205 0.00523841 0.0
0.21609 -0.0107876 0.0
0 0 0.0
0.0675981 -0.00115604 0.0
0.153029 -0.00702814 0.0
0.119085 -0.00386014 0.0
0.175601 -0.00983986 0.0
0.204993 -0.0118941 0.0
0.191779 -0.011506 0.0
0 0 0.0
0 0 0.0
0.183372 0.00561172 0.0
0.165832 0.00475566 0.0
0.141998 0.00328856 0.0
0.107461 0.00156217 0.0
0.0584012 0.00040557 0.0
0.223216 -0.00930611 0.0
0.22857 -0.00667182 0.0
0.22074 0.00142332 0.0
0.228052 -0.00425289 0.0
0.226632 -0.00124477 0.0
0.211266 0.00366395 0.0
0.19815 0.00507545 0.0
0.221488 -0.00986385 0.0
0.214722 -0.0114772 0.0
0.0697824 -0.00116292 0.0
0.12217 -0.00384907 0.0
0.156206 -0.0070661 0.0
0.177557 -0.00996335 0.0
0.204773 -0.012432 0.0
0.192613 -0.0117947 0.0
0 0 0.0
0 0 0.0
0.166811 0.0042367 0.0
0.183639 0.00493455 0.0
0.10864 0.0012307 0.0
0.1439 0.00260102 0.0
0.0590868 0.000295719 0.0
0.224769 -0.00757338 0.0
0.225171 -0.00480327 0.0
0.197224 0.00464236 0.0
0.218748 0.00121869 0.0
0.224479 -0.00154686 0.0
0.208704 0.00327905 0.0
0.219789 -0.010381 0.0
0.213031 -0.0122696 0.0
0.204716 -0.0128613 0.0
0.0719632 -0.00120902 0.0
0.125271 -0.00385248 0.0
0.159879 -0.00709126 0.0
0.180053 -0.0100417 0.0
0.194222 -0.0121142 0.0
0 0 0.0
0 0 0.0
0.168314 0.00320129 0.0
0.184053 0.00406704 0.0
0.10979 0.000755234 0.0
0.145346 0.00187396 0.0
0.0596165 0.000179093 0.0
0.222263 -0.0019183 0.0
0.222228 -0.00542517 0.0
0.222088 -0.00822672 0.0
0.196461 0.00393722 0.0
0.216254 0.000778819 0.0
0.206909 0.00268787 0.0
0.184533 0.00295432 0.0
0.216868 -0.0112218 0.0
0 0 0.0
0.211896 -0.0127894 0.0
0.195745 -0.0122984 0.0
0.204828 -0.0132067 0.0
0.074016 -0.00123511 0.0
0.162682 -0.00712735 0.0
0.128657 -0.00394096 0.0
0.183229 -0.0101623 0.0
0 0 0.0
0 0 0.0
0 0 0.0
0 0 0.0
0 0 0.0
0.0598602 5.88119e-05 0.0
0.146514 0.00105075 0.0
0.169503 0.00213781 0.0
0.110435 0.000355156 0.0
0.219378 -0.00252008 0.0
0.219297 -0.00614202 0.0
0.219407 -0.00891329 0.0
0.205503 0.00200378 0.0
0.195833 0.00293197 0.0
0.212776 -0.00018585 0.0
0.195421 0.00187299 0.0
0.184881 0.00200463 0.0
0.2149 -0.0118286 0.0
0.210906 -0.0132453 0.0
0 0 0.0
-3.64435e-05 5.01894e-05 0.0
0 0 0.0
-0.000703792 0.00644837 0.0
0.205105 -0.0135261 0.0
0.196947 -0.0124489 0.0
0.0763444 -0.00130926 0.0
0.16588 -0.00726515 0.0
0.131758 -0.0041243 0.0
0.185951 -0.0103527 0.0
0 0 0.0
0 0 0.0
0 0 0.0
-0.000609349 0.00436741 0.0
-0.000274979 0.00054052 0.0
-0.000583742 0.000571984 0.0
0 0 0.0
0.059839 -7.44241e-05 0.0
0.147209 0.000345391 0.0
0.17046 0.00097875 0.0
0.110747 -0.000124194 0.0
0.216544 -0.00330744 0.0
0.21643 -0.00696039 0.0
0.216812 -0.00961913 0.0
0.204225 0.00114764 0.0
0.210919 -0.000957532 0.0
0.195047 0.000684605 0.0
0.185349 0.000247598 0.0
0.213069 -0.0124447 0.0
0.211049 -0.0134565 0.0
0.208008 -0.0138935 0.0
0 0 0.0
-0.000524587 0.000260433 0.0
0 0 0.0
0 0 0.0
-0.00232838 0.0124464 0.0
-0.00261987 0.00941355 0.0
0.203932 -0.0137101 0.0
0.198569 -0.0127538 0.0
0.134594 -0.00440819 0.0
0.0786159 -0.00145369 0.0
0.169078 -0.00759403 0.0
0.188584 -0.0107087 0.0
0 0 0.0
-0.00147728 0.00326473 0.0
-0.00213032 0.00606256 0.0
-0.00144884 0.00194739 0.0
-0.00199894 0.0013986 0.0
0 0 0.0
0.0596211 -0.000194267 0.0
0.147663 -0.000486209 0.0
0.171131 -0.000215734 0.0
0.110662 -0.000549545 0.0
0.21379 -0.00424911 0.0
0.21372 -0.00788686 0.0
0.214353 -0.0103874 0.0
0.202319 -0.000630232 0.0
0.209118 -0.0018552 0.0
0.194661 -0.000861057 0.0
0.17152 -0.00141486 0.0
0.185629 -0.00123341 0.0
0.211719 -0.012976 0.0
0.209563 -0.0141043 0.0
0.205772 -0.0142759 0.0
0 0 0.0
-0.00193281 0.000568327 0.0
0 0 0.0
0 0 0.0
0 0 0.0
0 0 0.0
-0.00518637 0.00970979 0.0
-0.000534718 0.00978436 0.0
-0.00215994 0.0148449 0.0
-0.00525627 0.018547 0.0
-0.00499054 0.014112 0.0
0 0 0.0
7.31949e-05 0.0115697 0.0
0.20057 -0.0134263 0.0
0.190693 -0.0112005 0.0
0 0 0.0
0.0814108 -0.00171666 0.0
0.137929 -0.00489313 0.0
0.17277 -0.00840303 0.0
0 0 0.0
0 0 0.0
-0.00390938 0.00582929 0.0
-0.00386303 0.00364369 0.0
-0.00443703 0.00221506 0.0
0 0 0.0
0.0591416 -0.000310914 0.0
0.147674 -0.00139063 0.0
0.110183 -0.000935159 0.0
0.171491 -0.00229544 0.0
0.211221 -0.00535766 0.0
0.211806 -0.0086507 0.0
0.212058 -0.0112511 0.0
0.201295 -0.00186771 0.0
0.207049 -0.00315279 0.0
0.194236 -0.00246356 0.0
0.185616 -0.00229962 0.0