# vtk DataFile Version 3.0
Mesh NS-CD Problem
ASCII
DATASET UNSTRUCTURED_GRID
POINTS 10839 float
-2 0.3 0.0
-2 0.4 0.0
-2 0.35 0.0
-2 0.45 0.0
-2 0.5 0.0
-2 0.55 0.0
-2 0 0.0
-2 0.05 0.0
-2 0.85 0.0
-2 0.9 0.0
-2 0.1 0.0
-2 0.15 0.0
-2 0.25 0.0
-2 0.2 0.0
-1.96653 0.266667 0.0
-1.96524 0.415385 0.0
-1.96485 0.315 0.0
-1.96348 0.363636 0.0
-1.96414 0.464286 0.0
-2 0.6 0.0
-1.96538 0.584615 0.0
-1.96538 0.538462 0.0
-1.94979 0 0.0
-1.96653 0.0666666 0.0
-1.93306 0.0333333 0.0
-2 0.8 0.0
-2 0.75 0.0
-2 0.7 0.0
-2 0.65 0.0
-1.96249 0.7375 0.0
-1.96666 0.833333 0.0
-2 1 0.0
-2 0.95 0.0
-1.96249 0.8875 0.0
-1.96666 0.933333 0.0
-1.96234 0.1125 0.0
-1.96653 0.166667 0.0
-1.93724 0.225 0.0
-1.92971 0.28 0.0
-1.93048 0.380769 0.0
-1.93048 0.423077 0.0
-1.89958 0.3375 0.0
-1.9292 0.484203 0.0
-1.92117 0.530907 0.0
-1.96363 0.636364 0.0
-1.93076 0.576923 0.0
-1.89958 0 0.0
-1.88703 0.0375 0.0
-1.90963 0.08 0.0
-1.86611 0.0666666 0.0
-1.93749 0.775 0.0
-1.93635 0.672727 0.0
-1.92999 0.72 0.0
-1.93332 0.866667 0.0
-1.92856 0.821429 0.0
-1.94999 1 0.0
-1.92499 0.9625 0.0
-1.92499 0.925 0.0
-1.89998 0.9 0.0
-1.89958 0.125 0.0
-1.92827 0.178571 0.0
-1.89958 0.233333 0.0
-1.89045 0.290909 0.0
-1.86096 0.311538 0.0
-1.89241 0.392857 0.0
-1.89334 0.448489 0.0
-1.85655 0.357143 0.0
-1.89614 0.653846 0.0
-1.89427 0.504121 0.0
-1.8952 0.559753 0.0
-1.89614 0.615385 0.0
-1.84937 0 0.0
-1.83264 0.0333333 0.0
-1.85655 0.107143 0.0
-1.81172 0.075 0.0
-1.89998 0.766667 0.0
-1.89089 0.709091 0.0
-1.87498 0.85 0.0
-1.85998 0.79 0.0
-1.88748 0.8125 0.0
-1.89998 1 0.0
-1.88748 0.9625 0.0
-1.86664 0.933333 0.0
-1.85712 0.892857 0.0
-1.87448 0.15 0.0
-1.86611 0.194444 0.0
-1.83264 0.133333 0.0
-1.83264 0.2625 0.0
-1.82068 0.321429 0.0
-1.85664 0.404762 0.0
-1.85674 0.452381 0.0
-1.85683 0.5 0.0
-1.81184 0.375 0.0
-1.85712 0.642857 0.0
-1.85693 0.547619 0.0
-1.85702 0.595238 0.0
-1.79917 0 0.0
-1.78482 0.0357143 0.0
-1.79917 0.116667 0.0
-1.76569 0.0666666 0.0
-1.85452 0.745455 0.0
-1.82689 0.692308 0.0
-1.81815 0.781818 0.0
-1.82497 0.825 0.0
-1.84997 1 0.0
-1.8333 0.958333 0.0
-1.81247 0.8875 0.0
-1.81247 0.925 0.0
-1.81742 0.218182 0.0
-1.82427 0.175 0.0
-1.77634 0.145455 0.0
-1.79144 0.242308 0.0
-1.78482 0.285714 0.0
-1.77469 0.332653 0.0
-1.81215 0.529762 0.0
-1.81194 0.422619 0.0
-1.81203 0.470238 0.0
-1.76714 0.392857 0.0
-1.81234 0.625 0.0
-1.79732 0.571429 0.0
-1.74896 0 0.0
-1.73222 0.0333333 0.0
-1.75398 0.105 0.0
-1.71883 0.07 0.0
-1.79227 0.730769 0.0
-1.78007 0.679121 0.0
-1.75765 0.769231 0.0
-1.78178 0.818182 0.0
-1.78996 0.86 0.0
-1.79996 1 0.0
-1.78568 0.964286 0.0
-1.76663 0.922222 0.0
-1.76569 0.1875 0.0
-1.73222 0.15 0.0
-1.74896 0.25 0.0
-1.73714 0.304762 0.0
-1.76743 0.537202 0.0
-1.72869 0.343878 0.0
-1.76732 0.485119 0.0
-1.76723 0.440476 0.0
-1.72243 0.410714 0.0
-1.76757 0.607143 0.0
-1.69875 0 0.0
-1.68369 0.035 0.0
-1.69875 0.1125 0.0
-1.66528 0.075 0.0
-1.74341 0.708974 0.0
-1.73324 0.665934 0.0
-1.70441 0.74478 0.0
-1.71423 0.785714 0.0
-1.72303 0.826923 0.0
-1.74541 0.854545 0.0
-1.74541 0.890909 0.0
-1.74996 1 0.0
-1.73745 0.9625 0.0
-1.71359 0.927273 0.0
-1.68716 0.153846 0.0
-1.7131 0.214286 0.0
-1.70725 0.275 0.0
-1.69712 0.321939 0.0
-1.72279 0.589286 0.0
-1.72261 0.5 0.0
-1.7227 0.544643 0.0
-1.6827 0.355102 0.0
-1.67773 0.428571 0.0
-1.70763 0.464286 0.0
-1.70369 0.62449 0.0
-1.64854 0 0.0
-1.63181 0.0375 0.0
-1.64137 0.142857 0.0
-1.61764 0.0769231 0.0
-1.69458 0.703846 0.0
-1.67471 0.657437 0.0
-1.66143 0.727637 0.0
-1.67125 0.768571 0.0
-1.67851 0.821429 0.0
-1.68841 0.861538 0.0
-1.70904 0.890909 0.0
-1.69995 1 0.0
-1.68176 0.963636 0.0
-1.67267 0.927273 0.0
-1.65427 0.187143 0.0
-1.66718 0.231429 0.0
-1.66554 0.3 0.0
-1.67802 0.571429 0.0
-1.67792 0.523809 0.0
-1.6367 0.366327 0.0
-1.63682 0.423469 0.0
-1.62568 0.502976 0.0
-1.6629 0.470238 0.0
-1.65254 0.618367 0.0
-1.6059 0.307143 0.0
-1.59833 0 0.0
-1.58288 0.0384615 0.0
-1.60563 0.169643 0.0
-1.58179 0.112271 0.0
-1.56964 0.0714286 0.0
-1.64574 0.690385 0.0
-1.62827 0.751429 0.0
-1.63371 0.791071 0.0
-1.64279 0.857143 0.0
-1.65378 0.896154 0.0
-1.64994 1 0.0
-1.6363 0.963636 0.0
-1.61916 0.930769 0.0
-1.61345 0.209107 0.0
-1.62126 0.248571 0.0
-1.56989 0.196429 0.0
-1.63324 0.553571 0.0
-1.58846 0.535714 0.0
-1.59408 0.361905 0.0
-1.59161 0.402211 0.0
-1.58832 0.464286 0.0
-1.61504 0.598581 0.0
-1.59683 0.64359 0.0
-1.57899 0.274107 0.0
-1.56176 0.322381 0.0
-1.54812 0 0.0
-1.53378 0.0357143 0.0
-1.54593 0.147619 0.0
-1.53385 0.0732143 0.0
-1.53393 0.110714 0.0
-1.58522 0.704286 0.0
-1.58709 0.745 0.0
-1.58896 0.785714 0.0
-1.60695 0.830357 0.0
-1.60707 0.892857 0.0
-1.59993 1 0.0
-1.58454 0.965385 0.0
-1.57135 0.928571 0.0
-1.55209 0.241071 0.0
-1.5291 0.198214 0.0
-1.56936 0.570918 0.0
-1.54369 0.517857 0.0
-1.5464 0.380952 0.0
-1.54564 0.427721 0.0
-1.54488 0.47449 0.0
-1.55026 0.606122 0.0
-1.54222 0.677143 0.0
-1.52943 0.282857 0.0
-1.52143 0.33619 0.0
-1.49792 0 0.0
-1.49802 0.05 0.0
-1.49822 0.15 0.0
-1.49312 0.1 0.0
-1.5423 0.717143 0.0
-1.54419 0.767857 0.0
-1.54727 0.819048 0.0
-1.57122 0.861905 0.0
-1.53553 0.914286 0.0
-1.54992 1 0.0
-1.53563 0.964286 0.0
-1.49842 0.25 0.0
-1.48831 0.2 0.0
-1.5214 0.558929 0.0
-1.49891 0.5 0.0
-1.49871 0.4 0.0
-1.47631 0.45 0.0
-1.49911 0.6 0.0
-1.49921 0.65 0.0
-1.49931 0.7 0.0
-1.48111 0.35 0.0
-1.48351 0.3 0.0
-1.44771 0 0.0
-1.44782 0.05 0.0
-1.44804 0.15 0.0
-1.44793 0.1 0.0
-1.49941 0.75 0.0
-1.49951 0.8 0.0
-1.49981 0.95 0.0
-1.49961 0.85 0.0
-1.49971 0.9 0.0
-1.49991 1 0.0
-1.44826 0.25 0.0
-1.43815 0.2 0.0
-1.47151 0.55 0.0
-1.44881 0.5 0.0
-1.44859 0.4 0.0
-1.42619 0.45 0.0
-1.44913 0.65 0.0
-1.44902 0.6 0.0
-1.44935 0.75 0.0
-1.44924 0.7 0.0
-1.43972 0.35 0.0
-1.43336 0.3 0.0
-1.3975 0 0.0
-1.39762 0.05 0.0
-1.39786 0.15 0.0
-1.39274 0.1 0.0
-1.44957 0.85 0.0
-1.44946 0.8 0.0
-1.4523 0.95 0.0
-1.44968 0.9 0.0
-1.4499 1 0.0
-1.3981 0.25 0.0
-1.38798 0.2 0.0
-1.42141 0.55 0.0
-1.3987 0.5 0.0
-1.39834 0.35 0.0
-1.37845 0.4 0.0
-1.37607 0.45 0.0
-1.40784 0.65 0.0
-1.39894 0.6 0.0
-1.41185 0.75 0.0
-1.39918 0.7 0.0
-1.38322 0.3 0.0
-1.34729 0 0.0
-1.34492 0.05 0.0
-1.34018 0.15 0.0
-1.34255 0.1 0.0
-1.40707 0.85 0.0
-1.39941 0.8 0.0
-1.39977 0.95 0.0
-1.39965 0.9 0.0
-1.39989 1 0.0
-1.33781 0.2 0.0
-1.33544 0.25 0.0
-1.37131 0.55 0.0
-1.34859 0.5 0.0
-1.33833 0.4 0.0
-1.3307 0.35 0.0
-1.32595 0.45 0.0
-1.34885 0.6 0.0
-1.36655 0.65 0.0
-1.36179 0.75 0.0
-1.34911 0.7 0.0
-1.33307 0.3 0.0
-1.29708 0 0.0
-1.29722 0.05 0.0
-1.2975 0.15 0.0
-1.29236 0.1 0.0
-1.35703 0.85 0.0
-1.34937 0.8 0.0
-1.34988 1 0.0
-1.34962 0.9 0.0
-1.35226 0.95 0.0
-1.28528 0.25 0.0
-1.28764 0.2 0.0
-1.28931 0.35 0.0
-1.32121 0.55 0.0
-1.29848 0.5 0.0
-1.28709 0.45 0.0
-1.2982 0.4 0.0
-1.29876 0.6 0.0
-1.31647 0.65 0.0
-1.29918 0.75 0.0
-1.29904 0.7 0.0
-1.28292 0.3 0.0
-1.24687 0 0.0
-1.24702 0.05 0.0
-1.24717 0.1 0.0
-1.24732 0.15 0.0
-1.29946 0.85 0.0
-1.29932 0.8 0.0
-1.29987 1 0.0
-1.29974 0.95 0.0
-1.30462 0.9 0.0
-1.24762 0.25 0.0
-1.23747 0.2 0.0
-1.24792 0.35 0.0
-1.22807 0.4 0.0
-1.27111 0.55 0.0
-1.24837 0.5 0.0
-1.24822 0.45 0.0
-1.24867 0.6 0.0
-1.26639 0.65 0.0
-1.26167 0.75 0.0
-1.24897 0.7 0.0
-1.23277 0.3 0.0
-1.19667 0 0.0
-1.19683 0.05 0.0
-1.18964 0.15 0.0
-1.19198 0.1 0.0
-1.25695 0.85 0.0
-1.24927 0.8 0.0
-1.25223 0.95 0.0
-1.24987 1 0.0
-1.24957 0.9 0.0
-1.1873 0.2 0.0
-1.18496 0.25 0.0
-1.18028 0.35 0.0
-1.17794 0.4 0.0
-1.1981 0.45 0.0
-1.19842 0.55 0.0
-1.19826 0.5 0.0
-1.19858 0.6 0.0
-1.19874 0.65 0.0
-1.19906 0.75 0.0
-1.1989 0.7 0.0
-1.18262 0.3 0.0
-1.14646 0 0.0
-1.14663 0.05 0.0
-1.1418 0.1 0.0
-1.13713 0.2 0.0
-1.14697 0.15 0.0
-1.20691 0.85 0.0
-1.20926 0.8 0.0
-1.20221 0.95 0.0
-1.19986 1 0.0
-1.20456 0.9 0.0
-1.13997 0.3 0.0
-1.14731 0.25 0.0
-1.13781 0.4 0.0
-1.13014 0.35 0.0
-1.12548 0.45 0.0
-1.14815 0.5 0.0
-1.15962 0.55 0.0
-1.14849 0.6 0.0
-1.15745 0.65 0.0
-1.16155 0.75 0.0
-1.14917 0.8 0.0
-1.14883 0.7 0.0
-1.09625 0 0.0
-1.09661 0.1 0.0
-1.09393 0.05 0.0
-1.09697 0.2 0.0
-1.08929 0.15 0.0
-1.15687 0.85 0.0
-1.14985 1 0.0
-1.15219 0.95 0.0
-1.14951 0.9 0.0
-1.09733 0.3 0.0
-1.08465 0.25 0.0
-1.09769 0.4 0.0
-1.08 0.35 0.0
-1.08661 0.45 0.0
-1.09804 0.5 0.0
-1.12082 0.55 0.0
-1.10916 0.8 0.0
-1.10629 0.7 0.0
-1.0984 0.6 0.0
-1.11616 0.65 0.0
-1.11149 0.75 0.0
-1.04604 0 0.0
-1.04623 0.05 0.0
-1.04642 0.1 0.0
-1.0468 0.2 0.0
-1.03911 0.15 0.0
-1.09948 0.9 0.0
-1.0993 0.85 0.0
-1.09984 1 0.0
-1.09966 0.95 0.0
-1.04718 0.3 0.0
-1.03449 0.25 0.0
-1.04756 0.4 0.0
-1.02986 0.35 0.0
-1.04775 0.45 0.0
-1.04794 0.5 0.0
-1.04813 0.55 0.0
-1.05911 0.8 0.0
-1.04831 0.6 0.0
-1.06376 0.7 0.0
-1.0485 0.65 0.0
-1.04888 0.75 0.0
-0.995833 0 0.0
-0.991231 0.1 0.0
-0.996033 0.05 0.0
-0.986629 0.2 0.0
-0.98893 0.15 0.0
-1.05447 0.9 0.0
-1.04926 0.85 0.0
-1.04983 1 0.0
-1.04964 0.95 0.0
-0.984328 0.25 0.0
-0.99703 0.3 0.0
-0.997429 0.4 0.0
-0.997628 0.45 0.0
-0.979726 0.35 0.0
-0.997827 0.5 0.0
-0.998027 0.55 0.0
-0.998226 0.6 0.0
-0.961416 0.475 0.0
-1.00907 0.8 0.0
-0.998426 0.65 0.0
-0.998625 0.7 0.0
-1.01138 0.75 0.0
-0.945625 0 0.0
-0.946044 0.1 0.0
-0.943334 0.05 0.0
-0.946463 0.2 0.0
-0.938752 0.15 0.0
-1.00444 0.9 0.0
-1.00675 0.85 0.0
-0.999821 1 0.0
-1.00213 0.95 0.0
-0.93417 0.25 0.0
-0.946881 0.3 0.0
-0.9473 0.4 0.0
-0.929588 0.35 0.0
-0.925005 0.45 0.0
-0.960371 0.525 0.0
-0.959325 0.575 0.0
-0.958279 0.625 0.0
-0.922714 0.5 0.0
-0.959017 0.8 0.0
-0.957233 0.675 0.0
-0.952999 0.7125 0.0
-0.948766 0.75 0.0
-0.895417 0 0.0
-0.895855 0.1 0.0
-0.893136 0.05 0.0
-0.896294 0.2 0.0
-0.888573 0.15 0.0
-0.949184 0.85 0.0
-0.954415 0.9 0.0
-0.949812 1 0.0
-0.949603 0.95 0.0
-0.884011 0.25 0.0
-0.896733 0.3 0.0
-0.874887 0.45 0.0
-0.879449 0.35 0.0
-0.897171 0.4 0.0
-0.920423 0.55 0.0
-0.918132 0.6 0.0
-0.915841 0.65 0.0
-0.872606 0.5 0.0
-0.908968 0.8 0.0
-0.91355 0.7 0.0
-0.898707 0.75 0.0
-0.845208 0 0.0
-0.845438 0.05 0.0
-0.845667 0.1 0.0
-0.845896 0.15 0.0
-0.833853 0.25 0.0
-0.846126 0.2 0.0
-0.899146 0.85 0.0
-0.904386 0.9 0.0
-0.899584 0.95 0.0
-0.899804 1 0.0
-0.838062 0.35 0.0
[...]
POINT_DATA 10839
VECTORS Velocity float
0.21 0 0.0
0.24 0 0.0
0.2275 0 0.0
0.2475 0 0.0
0.25 0 0.0
0.2475 0 0.0
0 0 0.0
0.0475 0 0.0
0.1275 0 0.0
0.09 0 0.0
0.09 0 0.0
0.1275 0 0.0
0.1875 0 0.0
0.16 0 0.0
0.195557 -2.39169e-05 0.0
0.242841 -3.25043e-05 0.0
0.215776 -2.84183e-05 0.0
0.231406 -3.19977e-05 0.0
0.248725 -3.4588e-05 0.0
0.24 0 0.0
0.24284 -3.2421e-05 0.0
0.24852 -3.33087e-05 0.0
0 0 0.0
0.0622239 -4.24374e-06 0.0
0.032227 -2.80618e-06 0.0
0.16 0 0.0
0.1875 0 0.0
0.21 0 0.0
0.2275 0 0.0
0.193592 -2.68286e-05 0.0
0.138887 -1.49887e-05 0.0
0 0 0.0
0.0475 0 0.0
0.0998415 -1.04646e-05 0.0
0.0622205 -4.29324e-06 0.0
0.0998462 -1.09294e-05 0.0
0.138891 -1.51207e-05 0.0
0.17438 -3.76868e-05 0.0
0.201605 -5.14897e-05 0.0
0.235787 -6.27189e-05 0.0
0.244085 -6.55875e-05 0.0
0.223602 -8.39908e-05 0.0
0.249751 -6.84889e-05 0.0
0.249044 -7.62733e-05 0.0
0.231404 -3.24967e-05 0.0
0.244081 -6.47935e-05 0.0
0 0 0.0
0.0361082 -5.39306e-06 0.0
0.0736127 -1.50232e-05 0.0
0.0622491 -1.64257e-05 0.0
0.17437 -3.71238e-05 0.0
0.220162 -5.14025e-05 0.0
0.201594 -5.15348e-05 0.0
0.115549 -2.2391e-05 0.0
0.146676 -3.45522e-05 0.0
0 0 0.0
0.0360873 -3.65185e-06 0.0
0.0693661 -1.1784e-05 0.0
0.0899835 -2.32559e-05 0.0
0.109391 -3.13732e-05 0.0
0.146691 -3.38883e-05 0.0
0.178902 -6.30089e-05 0.0
0.206293 -8.21956e-05 0.0
0.2145 -0.000110518 0.0
0.238527 -9.8083e-05 0.0
0.24735 -0.000102078 0.0
0.229607 -0.000124656 0.0
0.226324 -8.81619e-05 0.0
0.249983 -0.000102558 0.0
0.246426 -9.97853e-05 0.0
0.23668 -9.39939e-05 0.0
0 0 0.0
0.0322507 -6.07719e-06 0.0
0.0956963 -3.55526e-05 0.0
0.069429 -2.67757e-05 0.0
0.178876 -6.20189e-05 0.0
0.206269 -8.2754e-05 0.0
0.127476 -4.79261e-05 0.0
0.165873 -7.83357e-05 0.0
0.152326 -5.62748e-05 0.0
0 0 0.0
0.0360795 -5.22802e-06 0.0
0.0621958 -1.62676e-05 0.0
0.0956302 -3.62486e-05 0.0
0.127524 -4.83917e-05 0.0
0.156661 -7.01139e-05 0.0
0.1156 -5.54431e-05 0.0
0.193626 -0.000115141 0.0
0.218141 -0.000145442 0.0
0.24094 -0.000132736 0.0
0.247737 -0.000137595 0.0
0.25 -0.00013906 0.0
0.234397 -0.000168159 0.0
0.229577 -0.000122839 0.0
0.247727 -0.000137248 0.0
0.24092 -0.000132421 0.0
0 0 0.0
0.0344872 -8.38779e-06 0.0
0.10312 -5.43959e-05 0.0
0.0623024 -2.70877e-05 0.0
0.189727 -9.79274e-05 0.0
0.212989 -0.000136363 0.0
0.170535 -0.000105913 0.0
0.14433 -7.87658e-05 0.0
0 0 0.0
0.039898 -8.95938e-06 0.0
0.0997869 -4.95409e-05 0.0
0.0693215 -2.63709e-05 0.0
0.170623 -0.000106121 0.0
0.144421 -8.05239e-05 0.0
0.124376 -8.15019e-05 0.0
0.183648 -0.00013387 0.0
0.20413 -0.000160077 0.0
0.222037 -0.000188242 0.0
0.249109 -0.000182113 0.0
0.244026 -0.000177377 0.0
0.249119 -0.00018217 0.0
0.23855 -0.000213561 0.0
0.234353 -0.000167007 0.0
0.244883 -0.000191809 0.0
0 0 0.0
0.0322917 -8.867e-06 0.0
0.0940728 -5.70898e-05 0.0
0.065216 -3.41782e-05 0.0
0.196697 -0.000146109 0.0
0.217872 -0.000179214 0.0
0.177439 -0.000148113 0.0
0.148691 -0.000103699 0.0
0.12033 -7.28016e-05 0.0
0 0 0.0
0.0343908 -8.49327e-06 0.0
0.071645 -3.43848e-05 0.0
0.152423 -0.00011627 0.0
0.127612 -0.000100954 0.0
0.187576 -0.000165614 0.0
0.211949 -0.000206 0.0
0.248605 -0.000225523 0.0
0.225684 -0.00023318 0.0
0.249782 -0.000227223 0.0
0.246473 -0.000223479 0.0
0.242063 -0.000261055 0.0
0.238491 -0.000212718 0.0
0 0 0.0
0.0338737 -1.10904e-05 0.0
0.0999905 -7.60094e-05 0.0
0.0695426 -4.54165e-05 0.0
0.206262 -0.000192583 0.0
0.222406 -0.00022425 0.0
0.189978 -0.000199778 0.0
0.168256 -0.000161629 0.0
0.143006 -0.000124258 0.0
0.124196 -9.19672e-05 0.0
0.0970856 -6.19531e-05 0.0
0 0 0.0
0.0360211 -1.07901e-05 0.0
0.0673163 -3.67961e-05 0.0
0.130331 -0.000121736 0.0
0.16848 -0.000162696 0.0
0.19947 -0.000211992 0.0
0.218376 -0.000248521 0.0
0.241993 -0.000261337 0.0
0.25 -0.000272917 0.0
0.247989 -0.000269656 0.0
0.229079 -0.000280138 0.0
0.244936 -0.000310201 0.0
0.24874 -0.000286282 0.0
0.234447 -0.000267477 0.0
0 0 0.0
0.0362313 -1.4276e-05 0.0
0.122654 -0.000124526 0.0
0.0712255 -5.36435e-05 0.0
0.208352 -0.000234856 0.0
0.225128 -0.000279075 0.0
0.198051 -0.000243447 0.0
0.177729 -0.000201902 0.0
0.146529 -0.000149257 0.0
0.119135 -0.00010461 0.0
0.0970535 -7.01591e-05 0.0
0 0 0.0
0.0349392 -1.20689e-05 0.0
0.0672798 -4.13706e-05 0.0
0.152297 -0.000169762 0.0
0.178014 -0.000207237 0.0
0.210113 -0.000261886 0.0
0.244859 -0.000309638 0.0
0.24942 -0.000318223 0.0
0.232223 -0.000328912 0.0
0.244195 -0.000352404 0.0
0.249988 -0.000375464 0.0
0.249131 -0.000334363 0.0
0.235915 -0.000319453 0.0
0.212959 -0.000319162 0.0
0 0 0.0
0.0371595 -1.6803e-05 0.0
0.141105 -0.000173023 0.0
0.0999515 -0.000104874 0.0
0.066595 -5.22654e-05 0.0
0.213632 -0.000284918 0.0
0.186612 -0.000248044 0.0
0.165089 -0.000202148 0.0
0.122245 -0.000125137 0.0
0.0928696 -7.68248e-05 0.0
0 0 0.0
0.0349099 -1.3461e-05 0.0
0.0642296 -4.39015e-05 0.0
0.165592 -0.00021665 0.0
0.186963 -0.000254527 0.0
0.158117 -0.000226462 0.0
0.247092 -0.000361128 0.0
0.248691 -0.00041433 0.0
0.231048 -0.000368945 0.0
0.240523 -0.000393432 0.0
0.248756 -0.000414524 0.0
0.240205 -0.000366847 0.0
0.229259 -0.000359942 0.0
0.199176 -0.000312392 0.0
0.218629 -0.000372964 0.0
0 0 0.0
0.0346468 -1.64836e-05 0.0
0.126162 -0.000168024 0.0
0.0681723 -5.89904e-05 0.0
0.0988116 -0.000114084 0.0
0.208088 -0.000324775 0.0
0.189766 -0.000283448 0.0
0.168133 -0.000235614 0.0
0.140626 -0.000171287 0.0
0.0954141 -9.12097e-05 0.0
0 0 0.0
0.0332542 -1.37646e-05 0.0
0.0660604 -5.22151e-05 0.0
0.183217 -0.000295083 0.0
0.159254 -0.000253233 0.0
0.2449 -0.000426517 0.0
0.249659 -0.000468161 0.0
0.235957 -0.000431076 0.0
0.244855 -0.000455126 0.0
0.249376 -0.000467682 0.0
0.238623 -0.000431205 0.0
0.218426 -0.000389435 0.0
0.203097 -0.000364096 0.0
0.223364 -0.000426105 0.0
0 0 0.0
0.0478014 -3.27728e-05 0.0
0.127911 -0.000191319 0.0
0.0904145 -0.000107107 0.0
0.202615 -0.000348327 0.0
0.177975 -0.000286963 0.0
0.147896 -0.000216091 0.0
0.118727 -0.000142346 0.0
0.0780339 -7.6752e-05 0.0
0 0 0.0
0.0342331 -1.62096e-05 0.0
0.187823 -0.000349138 0.0
0.160391 -0.00028161 0.0
0.246452 -0.000486378 0.0
0.249998 -0.000524509 0.0
0.240134 -0.000497055 0.0
0.247572 -0.000546769 0.0
0.239863 -0.000493408 0.0
0.227298 -0.000456507 0.0
0.209737 -0.000406262 0.0
0.227716 -0.000483384 0.0
0.210282 -0.000427302 0.0
0 0 0.0
0.0478633 -3.64629e-05 0.0
0.128003 -0.000213223 0.0
0.0904942 -0.00011749 0.0
0.187181 -0.000344412 0.0
0.15963 -0.000270813 0.0
0.047202 -3.22959e-05 0.0
0.127096 -0.000188307 0.0
0.0895987 -0.000105152 0.0
0 0 0.0
0.187897 -0.000392393 0.0
0.160479 -0.000315078 0.0
0.24742 -0.000550663 0.0
0.249996 -0.000590112 0.0
0.240165 -0.000560326 0.0
0.247588 -0.000614456 0.0
0.227253 -0.000512379 0.0
0.239831 -0.000554081 0.0
0.187108 -0.000385879 0.0
0.209678 -0.000455673 0.0
0.227755 -0.000530802 0.0
0.210345 -0.000480726 0.0
0 0 0.0
0.0479311 -3.96171e-05 0.0
0.128106 -0.000236537 0.0
0.090602 -0.000130984 0.0
0.127005 -0.000211152 0.0
0.159548 -0.00030343 0.0
0.0471437 -3.59804e-05 0.0
0.0895118 -0.000117154 0.0
0 0 0.0
0.187981 -0.000438705 0.0
0.160578 -0.000351271 0.0
0.247402 -0.000616715 0.0
0.249994 -0.000660373 0.0
0.227798 -0.000582929 0.0
0.240212 -0.000656157 0.0
0.247603 -0.000687952 0.0
0.227209 -0.000559337 0.0
0.239794 -0.000618872 0.0
0.187048 -0.000417616 0.0
0.20961 -0.000508074 0.0
0.210416 -0.000538495 0.0
0 0 0.0
0.0480101 -4.33996e-05 0.0
0.12824 -0.000265032 0.0
0.0907118 -0.000143345 0.0
0.12692 -0.000230992 0.0
0.159454 -0.000337638 0.0
0.0470724 -4.03791e-05 0.0
0.0894155 -0.000130125 0.0
0 0 0.0
0.16069 -0.000389934 0.0
0.188102 -0.000501683 0.0
0.24738 -0.000687374 0.0
0.24999 -0.00073599 0.0
0.240243 -0.00071803 0.0
0.227878 -0.000676897 0.0
0.24762 -0.000766456 0.0
0.239753 -0.000687334 0.0
0.227163 -0.000610303 0.0
0.186961 -0.000463206 0.0
0.209535 -0.000563088 0.0
0.210496 -0.000602337 0.0
0 0 0.0
0.0480886 -4.70067e-05 0.0
0.128353 -0.000288087 0.0
0.0908326 -0.000156218 0.0
0.126811 -0.000256663 0.0
0.159351 -0.000374751 0.0
0 0 0.0
0.0893077 -0.000145531 0.0
0.0469996 -4.50508e-05 0.0
0.188212 -0.000561024 0.0
0.160816 -0.000433099 0.0
0.227933 -0.000741443 0.0
0.247356 -0.000763775 0.0
0.249985 -0.000818225 0.0
0.247634 -0.000833422 0.0
0.240277 -0.000783618 0.0
0.239706 -0.00076077 0.0
0.227099 -0.000675452 0.0
0.186838 -0.000523801 0.0
0.209451 -0.000622264 0.0
0.210586 -0.000672195 0.0
0 0 0.0
0.0481757 -5.04548e-05 0.0
0.0909526 -0.000168025 0.0
0.128499 -0.000316822 0.0
0.126672 -0.000289537 0.0
0.159238 -0.00041469 0.0
0 0 0.0
0.046911 -5.0793e-05 0.0
0.0892018 -0.000160558 0.0
0.188306 -0.000608644 0.0
0.16096 -0.000481507 0.0
0.22799 -0.000812385 0.0
0.240339 -0.000912543 0.0
0.247326 -0.000846242 0.0
0.249977 -0.000907055 0.0
0.247648 -0.000904697 0.0
0.239651 -0.000839047 0.0
0.227028 -0.000744673 0.0
0.186757 -0.000563074 0.0
0.209359 -0.000683482 0.0
0.210687 -0.000751665 0.0
0 0 0.0
0.0482708 -5.39311e-05 0.0
0.128691 -0.000355678 0.0
0.0911148 -0.00018519 0.0
0.126558 -0.000316685 0.0
0.159115 -0.00045736 0.0
0.0468204 -5.6761e-05 0.0
0 0 0.0
0.0890588 -0.000181765 0.0
0.161123 -0.00053701 0.0
0.188478 -0.000699045 0.0
0.2281 -0.000944152 0.0
0.240387 -0.00102025 0.0
0.247664 -0.00100693 0.0
0.247273 -0.000974647 0.0
0.249965 -0.00100616 0.0
0.239589 -0.00092409 0.0
0.226919 -0.000841983 0.0
0.186612 -0.000629988 0.0
0.209257 -0.000748237 0.0
0.2108 -0.000842186 0.0
0 0 0.0
0.0483722 -5.77041e-05 0.0
0.0912795 -0.000201788 0.0
0.161308 -0.000600112 0.0
0.128852 -0.000388422 0.0
0.126415 -0.000350766 0.0
0.159009 -0.000493037 0.0
0.0467124 -6.47524e-05 0.0
0 0 0.0
0.0889274 -0.000201681 0.0
0.210905 -0.00093007 0.0
0.188599 -0.000764982 0.0
0.240427 -0.00111454 0.0
0.228186 -0.00106314 0.0
0.247685 -0.00117184 0.0
0.249947 -0.00111294 0.0
0.247237 -0.00105039 0.0
0.239517 -0.00101206 0.0
0.226841 -0.000904787 0.0
0.186516 -0.000671297 0.0
0.15884 -0.000548138 0.0
0.209146 -0.000812988 0.0
0 0 0.0
0.0914476 -0.000222481 0.0
0.0484919 -6.30395e-05 0.0
0.161475 -0.000663504 0.0
0.129099 -0.000446269 0.0
0.126261 -0.000386507 0.0
0 0 0.0
0.0465909 -7.33423e-05 0.0
0.088753 -0.000227439 0.0
0.211023 -0.00102902 0.0
0.18882 -0.00089543 0.0
0.240466 -0.0012182 0.0
0.228281 -0.00119875 0.0
0.247687 -0.00127676 0.0
0.249918 -0.00123171 0.0
0.247195 -0.00113283 0.0
0.158719 -0.000581361 0.0
0.209041 -0.000867627 0.0
0.239431 -0.00110363 0.0
0.226756 -0.000969637 0.0
0.18638 -0.000725598 0.0
0 0 0.0
0.0486112 -6.9294e-05 0.0
0.0916552 -0.000252261 0.0
0.161711 -0.000756812 0.0
0.12935 -0.000511232 0.0
0.0885792 -0.000249878 0.0
0.12607 -0.000426055 0.0
0 0 0.0
0.0464493 -8.25182e-05 0.0
0.21117 -0.00116793 0.0
0.189026 -0.00102407 0.0
0.240514 -0.00136667 0.0
0.22838 -0.00135679 0.0
0.247689 -0.0013909 0.0
0.249882 -0.00136322 0.0
0.247094 -0.00129267 0.0
0.158562 -0.000620266 0.0
0.239331 -0.0012007 0.0
0.208928 -0.000918888 0.0
0.226597 -0.00107563 0.0
0.186197 -0.000788711 0.0
0 0 0.0
0.0919252 -0.000298277 0.0
0.0487531 -8.11717e-05 0.0
0.162035 -0.000901689 0.0
0.129637 -0.000596836 0.0
0.0884137 -0.000267481 0.0
0.125895 -0.00045721 0.0
0 0 0.0
0.0462986 -9.21476e-05 0.0
0.189253 -0.00118229 0.0
0.211334 -0.00133509 0.0
0.240558 -0.00154089 0.0
0.24768 -0.00154996 0.0
0.228481 -0.00154112 0.0
0.249825 -0.00150536 0.0
0.247001 -0.0014183 0.0
0.239209 -0.00129946 0.0
0.249337 -0.00165747 0.0
0.158393 -0.000649593 0.0
0.226452 -0.00115265 0.0
0.20873 -0.000992593 0.0
0.186075 -0.000818446 0.0
0 0 0.0
0.0921885 -0.000351267 0.0
0.0489334 -9.65857e-05 0.0
0.162282 -0.00102628 0.0
0.129971 -0.000708495 0.0
0.0882219 -0.000282187 0.0
0.125738 -0.000475546 0.0
0 0 0.0
0.0461463 -9.91839e-05 0.0
0.189507 -0.00137456 0.0
0.211509 -0.00153567 0.0
0.240586 -0.00173567 0.0
0.228583 -0.00176129 0.0
0.247632 -0.00182485 0.0
0.24896 -0.00157629 0.0
0.243621 -0.00145255 0.0
0.233326 -0.00129748 0.0
0.249697 -0.0017525 0.0
0.158218 -0.000663462 0.0
0.218071 -0.00112345 0.0
0.203363 -0.000987872 0.0
0.185857 -0.000851042 0.0
0 0 0.0
0.0925329 -0.000429416 0.0
0.0491389 -0.000116902 0.0
0.162626 -0.00121721 0.0
0.13036 -0.000853752 0.0
0.125525 -0.000482968 0.0
0.0880271 -0.000288199 0.0
0 0 0.0
0.0459724 -0.000102663 0.0
0.189785 -0.00161058 0.0
0.211694 -0.00177564 0.0
0.247566 -0.00204053 0.0
0.228678 -0.00201642 0.0
0.24061 -0.00196679 0.0
0.246802 -0.00162875 0.0
0.238954 -0.0014626 0.0
0.226158 -0.00126973 0.0
0.249568 -0.00193818 0.0
0.158029 -0.000658173 0.0
0.208413 -0.00106144 0.0
0.185657 -0.000858097 0.0
0 0 0.0
0.0493842 -0.000143661 0.0
0.0929463 -0.000530498 0.0
0.130746 -0.00100772 0.0
0.190088 -0.0018934 0.0
0.163016 -0.00145308 0.0
0.125337 -0.000468414 0.0
0.0878357 -0.000282768 0.0
0.0458019 -0.000104112 0.0
0 0 0.0
0.228751 -0.00226174 0.0
0.211886 -0.00206416 0.0
0.247495 -0.0022317 0.0
0.240604 -0.00223465 0.0
0.225933 -0.00132929 0.0
0.246625 -0.00177411 0.0
0.238744 -0.00156595 0.0
0.249402 -0.00214367 0.0
0.185438 -0.000838878 0.0
0.157794 -0.000614176 0.0
0.208114 -0.00108572 0.0
0 0 0.0
0.0497031 -0.000183684 0.0
0.0935115 -0.000666793 0.0
0.131272 -0.00122886 0.0
0.190331 -0.00214887 0.0
0.16355 -0.00181218 0.0
0.125159 -0.000429457 0.0
0.087646 -0.000257616 0.0
0.045644 -9.89462e-05 0.0
0 0 0.0
0.124995 -0.000362782 0.0
0.228812 -0.00252892 0.0
0.212141 -0.00252233 0.0
0.240554 -0.00267881 0.0
0.247398 -0.00243787 0.0
0.225557 -0.00139464 0.0
0.238489 -0.00166753 0.0
0.246402 -0.0019323 0.0
0.249177 -0.00237381 0.0
0.185187 -0.000793404 0.0
0.157579 -0.000549065 0.0
0.207829 -0.00108425 0.0
0 0 0.0
0.0500983 -0.000226729 0.0
0.0941423 -0.000822889 0.0
0.131887 -0.00149452 0.0
0.190679 -0.00253115 0.0
0.164061 -0.00217209 0.0
0.0454947 -9.20779e-05 0.0
0.0874946 -0.000222683 0.0
0 0 0.0
0.124869 -0.000283158 0.0
0.228867 -0.0029154 0.0
0.212335 -0.00293975 0.0
0.240466 -0.0030464 0.0
0.247224 -0.00274296 0.0
0.225266 -0.00143114 0.0
0.238175 -0.00177118 0.0
0.248894 -0.00262879 0.0
0.245978 -0.00218366 0.0
0.18497 -0.000739245 0.0
0.157356 -0.000452024 0.0
0.207499 -0.0010589 0.0
0 0 0.0
0.0505883 -0.00028303 0.0
0.0949066 -0.0010051 0.0
0.13273 -0.00185551 0.0
0.191145 -0.00310174 0.0
0.212524 -0.00342295 0.0
0.164637 -0.0025928 0.0
0.0453832 -7.71471e-05 0.0
0.0873848 -0.000171294 0.0
0 0 0.0
0.124748 -0.000170149 0.0
0.228898 -0.00351429 0.0
0.240366 -0.00338191 0.0
0.246996 -0.00308468 0.0
0.248629 -0.00284373 0.0
0.224936 -0.00145303 0.0
0.237781 -0.00188525 0.0
0.245588 -0.0023745 0.0
0.157126 -0.000323841 0.0
0.184651 -0.000646188 0.0
0.207101 -0.00101658 0.0
0 0 0.0
0.0512201 -0.000350737 0.0
0.0958275 -0.00121979 0.0
0.133603 -0.00222312 0.0
0.191444 -0.003499 0.0
0.212697 -0.00396093 0.0
0.165292 -0.00307155 0.0
0.0452971 -6.07113e-05 0.0
0.0873284 -0.000103749 0.0
0 0 0.0
0.156934 -0.00019979 0.0
0.087338 -2.01009e-05 0.0
0.124649 -1.64416e-05 0.0
0.228872 -0.00405204 0.0
0.240222 -0.00373849 0.0
0.246538 -0.00365422 0.0
0.248323 -0.00306959 0.0
0.245235 -0.00254181 0.0
0.224462 -0.00147628 0.0
0.237106 -0.00204746 0.0
0.184188 -0.000492347 0.0
0.206709 -0.000972568 0.0
0.22883 -0.00452357 0.0
0 0 0.0
0.0519486 -0.000422614 0.0
0.134631 -0.00263651 0.0
0.0969146 -0.00146183 0.0
0.212866 -0.00458041 0.0
0.191987 -0.00423821 0.0
0.166031 -0.0036076 0.0
0.0452594 -3.19338e-05 0.0
0 0 0.0
0.183859 -0.00039119 0.0
0.156689 -3.24374e-05 0.0
0.124617 0.00012569 0.0
0.0452418 -1.10348e-05 0.0
0.0874109 6.60385e-05 0.0
0.239996 -0.00424387 0.0
0.246214 -0.00400386 0.0
0.247827 -0.00340735 0.0
0.247392 -0.0036923 0.0
0.244815 -0.00271473 0.0
0.223888 -0.00150462 0.0
0.236482 -0.00217916 0.0
0.206255 -0.000909236 0.0
0.228736 -0.00504242 0.0
0.0527689 -0.000500062 0.0
0 0 0.0
0.13562 -0.00301717 0.0
0.0981858 -0.00172083 0.0
0.213018 -0.00526223 0.0
0.192332 -0.00473459 0.0
0.166875 -0.00420375 0.0
0 0 0.0
0.183398 -0.000237001 0.0
0.156392 0.000177931 0.0
0.124625 0.000260543 0.0
0.0452961 1.17061e-05 0.0
0.0875455 0.000151318 0.0
0.239548 -0.00505854 0.0
0.245849 -0.00437405 0.0
0.246888 -0.00399035 0.0
0.243876 -0.00307708 0.0
0.223221 -0.00152673 0.0
0.235772 -0.00232123 0.0
0.205451 -0.00081636 0.0
0.228599 -0.00574228 0.0
0 0 0.0
0.0537908 -0.000587519 0.0
0.13695 -0.00350335 0.0
0.0995195 -0.00197818 0.0
0.167822 -0.00484723 0.0
0.213156 -0.00602208 0.0
0.192975 -0.00563389 0.0
0 0 0.0
0 0 0.0
0.182862 -9.18069e-05 0.0
0.15615 0.000348546 0.0
0.124686 0.000404522 0.0
0.0877577 0.000229424 0.0
0.0453947 3.36e-05 0.0
0.239128 -0.00571389 0.0
0.245271 -0.00491293 0.0
0.235101 -0.00245466 0.0
0.246122 -0.00443442 0.0
0.243056 -0.00337834 0.0
0.222431 -0.00156457 0.0
0.204707 -0.000747592 0.0
0.238729 -0.00629732 0.0
0.228387 -0.00651445 0.0
0.0549894 -0.000685846 0.0
0.101206 -0.00228184 0.0
0.138471 -0.00403485 0.0
0.168684 -0.0054163 0.0
0.213293 -0.00684695 0.0
0.193386 -0.00624164 0.0
0 0 0.0
0 0 0.0
0.155951 0.000477966 0.0
0.182138 8.33034e-05 0.0
0.0880009 0.000294523 0.0
0.124806 0.000548811 0.0
0.0455134 5.20058e-05 0.0
0.244259 -0.00577095 0.0
0.245211 -0.00493483 0.0
0.203882 -0.000691542 0.0
0.234352 -0.00259494 0.0
0.242349 -0.00363867 0.0
0.221186 -0.00163702 0.0
0.238274 -0.00689917 0.0
0.228038 -0.00767481 0.0
0.21341 -0.00775535 0.0
0.0564266 -0.000804612 0.0
0.103124 -0.00262169 0.0
0.140476 -0.00469397 0.0
0.169874 -0.00616153 0.0
0.194163 -0.00732423 0.0
0 0 0.0
0 0 0.0
0.155674 0.000635829 0.0
0.181489 0.000184481 0.0
0.0883707 0.000350743 0.0
0.124971 0.000642021 0.0
0.0457004 6.89974e-05 0.0
0.241546 -0.00392406 0.0
0.244172 -0.00547674 0.0
0.243386 -0.00646825 0.0
0.202954 -0.000657955 0.0
0.233291 -0.00280822 0.0
0.220095 -0.00173554 0.0
0.180809 0.000249985 0.0
0.237315 -0.00809337 0.0
0 0 0.0
0.227674 -0.00865014 0.0
0.194856 -0.00828998 0.0
0.213518 -0.00873755 0.0
0.0579305 -0.00091685 0.0
0.142184 -0.00523709 0.0
0.105536 -0.0030409 0.0
0.171495 -0.00716748 0.0
0 0 0.0
0 0 0.0
0 0 0.0
0 0 0.0
0 0 0.0
0.0458904 7.61318e-05 0.0
0.12519 0.000694648 0.0
0.155455 0.000714075 0.0
0.0886829 0.000371571 0.0
0.240379 -0.00431656 0.0
0.242972 -0.00608784 0.0
0.242405 -0.00722654 0.0
0.219102 -0.00182172 0.0
0.201919 -0.00066197 0.0
0.231551 -0.00316468 0.0
0.200973 -0.000695806 0.0
0.18026 0.000269764 0.0
0.236477 -0.00906131 0.0
0.227257 -0.00969231 0.0
0 0 0.0
8.6857e-05 -2.83767e-05 0.0
0 0 0.0
-0.000466172 0.00318559 0.0
0.213632 -0.00982391 0.0
0.195436 -0.00905952 0.0
0.0598217 -0.00106576 0.0
0.144376 -0.00592221 0.0
0.108023 -0.0034702 0.0
0.17305 -0.00809765 0.0
0 0 0.0
0 0 0.0
0 0 0.0
-0.000367463 0.00189863 0.0
-7.53324e-05 -5.44727e-06 0.0
-7.8751e-05 5.77318e-05 0.0
0 0 0.0
0.0460681 7.02498e-05 0.0
0.125379 0.0007056 0.0
0.155242 0.00073522 0.0
0.0890867 0.000364422 0.0
0.239058 -0.00477221 0.0
0.241615 -0.0067593 0.0
0.24127 -0.00805369 0.0
0.218021 -0.00194884 0.0
0.230414 -0.00342275 0.0
0.199961 -0.000759158 0.0
0.179325 0.000219967 0.0
0.23554 -0.0101033 0.0
0.229415 -0.0106181 0.0
0.220814 -0.0108256 0.0
0 0 0.0
2.66484e-05 5.39835e-05 0.0
0 0 0.0
0 0 0.0
-0.00160785 0.00677715 0.0
-0.00164541 0.0047106 0.0
0.209751 -0.0107305 0.0
0.196261 -0.0101837 0.0
0.110534 -0.00391238 0.0
0.0617863 -0.00123727 0.0
0.146823 -0.00670289 0.0
0.17475 -0.00912662 0.0
0 0 0.0
-0.000698369 0.00114588 0.0
-0.00119387 0.00266424 0.0
-0.000533541 0.000564717 0.0
-0.000598099 0.000476247 0.0
0 0 0.0
0.0462407 5.75474e-05 0.0
0.125626 0.00066161 0.0
0.155042 0.000699426 0.0
0.0894448 0.000321254 0.0
0.237565 -0.00527698 0.0
0.24009 -0.00749128 0.0
0.239982 -0.00895563 0.0
0.21605 -0.00222457 0.0
0.229179 -0.00369479 0.0
0.198692 -0.00090742 0.0
0.154881 0.000569731 0.0
0.178555 9.08784e-05 0.0
0.23469 -0.0109949 0.0
0.226396 -0.0116538 0.0
0.213784 -0.0119345 0.0
0 0 0.0
-0.000490404 0.000233634 0.0
0 0 0.0
0 0 0.0
0 0 0.0
0 0 0.0
-0.0030782 0.00497303 0.0
-0.000411517 0.00559112 0.0
-0.00157615 0.00849686 0.0
-0.00374481 0.0110089 0.0
-0.00331656 0.00784268 0.0
0 0 0.0
-9.05096e-06 0.00743316 0.0
0.197377 -0.01179 0.0
0.176252 -0.0100705 0.0
0 0 0.0
0.0642983 -0.00147988 0.0
0.113654 -0.004498 0.0
0.149995 -0.00781046 0.0
0 0 0.0
0 0 0.0
-0.00201508 0.00261978 0.0
-0.00170749 0.00155269 0.0
-0.00175294 0.00101586 0.0
0 0 0.0