# vtk DataFile Version 3.0
Mesh NS-CD Problem
ASCII
DATASET UNSTRUCTURED_GRID
POINTS 10839 float
-2 0.3 0.0
-2 0.4 0.0
-2 0.35 0.0
-2 0.45 0.0
-2 0.5 0.0
-2 0.55 0.0
-2 0 0.0
-2 0.05 0.0
-2 0.85 0.0
-2 0.9 0.0
-2 0.1 0.0
-2 0.15 0.0
-2 0.25 0.0
-2 0.2 0.0
-1.96653 0.266667 0.0
-1.96524 0.415385 0.0
-1.96485 0.315 0.0
-1.96348 0.363636 0.0
-1.96414 0.464286 0.0
-2 0.6 0.0
-1.96538 0.584615 0.0
-1.96538 0.538462 0.0
-1.94979 0 0.0
-1.96653 0.0666666 0.0
-1.93306 0.0333333 0.0
-2 0.8 0.0
-2 0.75 0.0
-2 0.7 0.0
-2 0.65 0.0
-1.96249 0.7375 0.0
-1.96666 0.833333 0.0
-2 1 0.0
-2 0.95 0.0
-1.96249 0.8875 0.0
-1.96666 0.933333 0.0
-1.96234 0.1125 0.0
-1.96653 0.166667 0.0
-1.93724 0.225 0.0
-1.92971 0.28 0.0
-1.93048 0.380769 0.0
-1.93048 0.423077 0.0
-1.89958 0.3375 0.0
-1.9292 0.484203 0.0
-1.92117 0.530907 0.0
-1.96363 0.636364 0.0
-1.93076 0.576923 0.0
-1.89958 0 0.0
-1.88703 0.0375 0.0
-1.90963 0.08 0.0
-1.86611 0.0666666 0.0
-1.93749 0.775 0.0
-1.93635 0.672727 0.0
-1.92999 0.72 0.0
-1.93332 0.866667 0.0
-1.92856 0.821429 0.0
-1.94999 1 0.0
-1.92499 0.9625 0.0
-1.92499 0.925 0.0
-1.89998 0.9 0.0
-1.89958 0.125 0.0
-1.92827 0.178571 0.0
-1.89958 0.233333 0.0
-1.89045 0.290909 0.0
-1.86096 0.311538 0.0
-1.89241 0.392857 0.0
-1.89334 0.448489 0.0
-1.85655 0.357143 0.0
-1.89614 0.653846 0.0
-1.89427 0.504121 0.0
-1.8952 0.559753 0.0
-1.89614 0.615385 0.0
-1.84937 0 0.0
-1.83264 0.0333333 0.0
-1.85655 0.107143 0.0
-1.81172 0.075 0.0
-1.89998 0.766667 0.0
-1.89089 0.709091 0.0
-1.87498 0.85 0.0
-1.85998 0.79 0.0
-1.88748 0.8125 0.0
-1.89998 1 0.0
-1.88748 0.9625 0.0
-1.86664 0.933333 0.0
-1.85712 0.892857 0.0
-1.87448 0.15 0.0
-1.86611 0.194444 0.0
-1.83264 0.133333 0.0
-1.83264 0.2625 0.0
-1.82068 0.321429 0.0
-1.85664 0.404762 0.0
-1.85674 0.452381 0.0
-1.85683 0.5 0.0
-1.81184 0.375 0.0
-1.85712 0.642857 0.0
-1.85693 0.547619 0.0
-1.85702 0.595238 0.0
-1.79917 0 0.0
-1.78482 0.0357143 0.0
-1.79917 0.116667 0.0
-1.76569 0.0666666 0.0
-1.85452 0.745455 0.0
-1.82689 0.692308 0.0
-1.81815 0.781818 0.0
-1.82497 0.825 0.0
-1.84997 1 0.0
-1.8333 0.958333 0.0
-1.81247 0.8875 0.0
-1.81247 0.925 0.0
-1.81742 0.218182 0.0
-1.82427 0.175 0.0
-1.77634 0.145455 0.0
-1.79144 0.242308 0.0
-1.78482 0.285714 0.0
-1.77469 0.332653 0.0
-1.81215 0.529762 0.0
-1.81194 0.422619 0.0
-1.81203 0.470238 0.0
-1.76714 0.392857 0.0
-1.81234 0.625 0.0
-1.79732 0.571429 0.0
-1.74896 0 0.0
-1.73222 0.0333333 0.0
-1.75398 0.105 0.0
-1.71883 0.07 0.0
-1.79227 0.730769 0.0
-1.78007 0.679121 0.0
-1.75765 0.769231 0.0
-1.78178 0.818182 0.0
-1.78996 0.86 0.0
-1.79996 1 0.0
-1.78568 0.964286 0.0
-1.76663 0.922222 0.0
-1.76569 0.1875 0.0
-1.73222 0.15 0.0
-1.74896 0.25 0.0
-1.73714 0.304762 0.0
-1.76743 0.537202 0.0
-1.72869 0.343878 0.0
-1.76732 0.485119 0.0
-1.76723 0.440476 0.0
-1.72243 0.410714 0.0
-1.76757 0.607143 0.0
-1.69875 0 0.0
-1.68369 0.035 0.0
-1.69875 0.1125 0.0
-1.66528 0.075 0.0
-1.74341 0.708974 0.0
-1.73324 0.665934 0.0
-1.70441 0.74478 0.0
-1.71423 0.785714 0.0
-1.72303 0.826923 0.0
-1.74541 0.854545 0.0
-1.74541 0.890909 0.0
-1.74996 1 0.0
-1.73745 0.9625 0.0
-1.71359 0.927273 0.0
-1.68716 0.153846 0.0
-1.7131 0.214286 0.0
-1.70725 0.275 0.0
-1.69712 0.321939 0.0
-1.72279 0.589286 0.0
-1.72261 0.5 0.0
-1.7227 0.544643 0.0
-1.6827 0.355102 0.0
-1.67773 0.428571 0.0
-1.70763 0.464286 0.0
-1.70369 0.62449 0.0
-1.64854 0 0.0
-1.63181 0.0375 0.0
-1.64137 0.142857 0.0
-1.61764 0.0769231 0.0
-1.69458 0.703846 0.0
-1.67471 0.657437 0.0
-1.66143 0.727637 0.0
-1.67125 0.768571 0.0
-1.67851 0.821429 0.0
-1.68841 0.861538 0.0
-1.70904 0.890909 0.0
-1.69995 1 0.0
-1.68176 0.963636 0.0
-1.67267 0.927273 0.0
-1.65427 0.187143 0.0
-1.66718 0.231429 0.0
-1.66554 0.3 0.0
-1.67802 0.571429 0.0
-1.67792 0.523809 0.0
-1.6367 0.366327 0.0
-1.63682 0.423469 0.0
-1.62568 0.502976 0.0
-1.6629 0.470238 0.0
-1.65254 0.618367 0.0
-1.6059 0.307143 0.0
-1.59833 0 0.0
-1.58288 0.0384615 0.0
-1.60563 0.169643 0.0
-1.58179 0.112271 0.0
-1.56964 0.0714286 0.0
-1.64574 0.690385 0.0
-1.62827 0.751429 0.0
-1.63371 0.791071 0.0
-1.64279 0.857143 0.0
-1.65378 0.896154 0.0
-1.64994 1 0.0
-1.6363 0.963636 0.0
-1.61916 0.930769 0.0
-1.61345 0.209107 0.0
-1.62126 0.248571 0.0
-1.56989 0.196429 0.0
-1.63324 0.553571 0.0
-1.58846 0.535714 0.0
-1.59408 0.361905 0.0
-1.59161 0.402211 0.0
-1.58832 0.464286 0.0
-1.61504 0.598581 0.0
-1.59683 0.64359 0.0
-1.57899 0.274107 0.0
-1.56176 0.322381 0.0
-1.54812 0 0.0
-1.53378 0.0357143 0.0
-1.54593 0.147619 0.0
-1.53385 0.0732143 0.0
-1.53393 0.110714 0.0
-1.58522 0.704286 0.0
-1.58709 0.745 0.0
-1.58896 0.785714 0.0
-1.60695 0.830357 0.0
-1.60707 0.892857 0.0
-1.59993 1 0.0
-1.58454 0.965385 0.0
-1.57135 0.928571 0.0
-1.55209 0.241071 0.0
-1.5291 0.198214 0.0
-1.56936 0.570918 0.0
-1.54369 0.517857 0.0
-1.5464 0.380952 0.0
-1.54564 0.427721 0.0
-1.54488 0.47449 0.0
-1.55026 0.606122 0.0
-1.54222 0.677143 0.0
-1.52943 0.282857 0.0
-1.52143 0.33619 0.0
-1.49792 0 0.0
-1.49802 0.05 0.0
-1.49822 0.15 0.0
-1.49312 0.1 0.0
-1.5423 0.717143 0.0
-1.54419 0.767857 0.0
-1.54727 0.819048 0.0
-1.57122 0.861905 0.0
-1.53553 0.914286 0.0
-1.54992 1 0.0
-1.53563 0.964286 0.0
-1.49842 0.25 0.0
-1.48831 0.2 0.0
-1.5214 0.558929 0.0
-1.49891 0.5 0.0
-1.49871 0.4 0.0
-1.47631 0.45 0.0
-1.49911 0.6 0.0
-1.49921 0.65 0.0
-1.49931 0.7 0.0
-1.48111 0.35 0.0
-1.48351 0.3 0.0
-1.44771 0 0.0
-1.44782 0.05 0.0
-1.44804 0.15 0.0
-1.44793 0.1 0.0
-1.49941 0.75 0.0
-1.49951 0.8 0.0
-1.49981 0.95 0.0
-1.49961 0.85 0.0
-1.49971 0.9 0.0
-1.49991 1 0.0
-1.44826 0.25 0.0
-1.43815 0.2 0.0
-1.47151 0.55 0.0
-1.44881 0.5 0.0
-1.44859 0.4 0.0
-1.42619 0.45 0.0
-1.44913 0.65 0.0
-1.44902 0.6 0.0
-1.44935 0.75 0.0
-1.44924 0.7 0.0
-1.43972 0.35 0.0
-1.43336 0.3 0.0
-1.3975 0 0.0
-1.39762 0.05 0.0
-1.39786 0.15 0.0
-1.39274 0.1 0.0
-1.44957 0.85 0.0
-1.44946 0.8 0.0
-1.4523 0.95 0.0
-1.44968 0.9 0.0
-1.4499 1 0.0
-1.3981 0.25 0.0
-1.38798 0.2 0.0
-1.42141 0.55 0.0
-1.3987 0.5 0.0
-1.39834 0.35 0.0
-1.37845 0.4 0.0
-1.37607 0.45 0.0
-1.40784 0.65 0.0
-1.39894 0.6 0.0
-1.41185 0.75 0.0
-1.39918 0.7 0.0
-1.38322 0.3 0.0
-1.34729 0 0.0
-1.34492 0.05 0.0
-1.34018 0.15 0.0
-1.34255 0.1 0.0
-1.40707 0.85 0.0
-1.39941 0.8 0.0
-1.39977 0.95 0.0
-1.39965 0.9 0.0
-1.39989 1 0.0
-1.33781 0.2 0.0
-1.33544 0.25 0.0
-1.37131 0.55 0.0
-1.34859 0.5 0.0
-1.33833 0.4 0.0
-1.3307 0.35 0.0
-1.32595 0.45 0.0
-1.34885 0.6 0.0
-1.36655 0.65 0.0
-1.36179 0.75 0.0
-1.34911 0.7 0.0
-1.33307 0.3 0.0
-1.29708 0 0.0
-1.29722 0.05 0.0
-1.2975 0.15 0.0
-1.29236 0.1 0.0
-1.35703 0.85 0.0
-1.34937 0.8 0.0
-1.34988 1 0.0
-1.34962 0.9 0.0
-1.35226 0.95 0.0
-1.28528 0.25 0.0
-1.28764 0.2 0.0
-1.28931 0.35 0.0
-1.32121 0.55 0.0
-1.29848 0.5 0.0
-1.28709 0.45 0.0
-1.2982 0.4 0.0
-1.29876 0.6 0.0
-1.31647 0.65 0.0
-1.29918 0.75 0.0
-1.29904 0.7 0.0
-1.28292 0.3 0.0
-1.24687 0 0.0
-1.24702 0.05 0.0
-1.24717 0.1 0.0
-1.24732 0.15 0.0
-1.29946 0.85 0.0
-1.29932 0.8 0.0
-1.29987 1 0.0
-1.29974 0.95 0.0
-1.30462 0.9 0.0
-1.24762 0.25 0.0
-1.23747 0.2 0.0
-1.24792 0.35 0.0
-1.22807 0.4 0.0
-1.27111 0.55 0.0
-1.24837 0.5 0.0
-1.24822 0.45 0.0
-1.24867 0.6 0.0
-1.26639 0.65 0.0
-1.26167 0.75 0.0
-1.24897 0.7 0.0
-1.23277 0.3 0.0
-1.19667 0 0.0
-1.19683 0.05 0.0
-1.18964 0.15 0.0
-1.19198 0.1 0.0
-1.25695 0.85 0.0
-1.24927 0.8 0.0
-1.25223 0.95 0.0
-1.24987 1 0.0
-1.24957 0.9 0.0
-1.1873 0.2 0.0
-1.18496 0.25 0.0
-1.18028 0.35 0.0
-1.17794 0.4 0.0
-1.1981 0.45 0.0
-1.19842 0.55 0.0
-1.19826 0.5 0.0
-1.19858 0.6 0.0
-1.19874 0.65 0.0
-1.19906 0.75 0.0
-1.1989 0.7 0.0
-1.18262 0.3 0.0
-1.14646 0 0.0
-1.14663 0.05 0.0
-1.1418 0.1 0.0
-1.13713 0.2 0.0
-1.14697 0.15 0.0
-1.20691 0.85 0.0
-1.20926 0.8 0.0
-1.20221 0.95 0.0
-1.19986 1 0.0
-1.20456 0.9 0.0
-1.13997 0.3 0.0
-1.14731 0.25 0.0
-1.13781 0.4 0.0
-1.13014 0.35 0.0
-1.12548 0.45 0.0
-1.14815 0.5 0.0
-1.15962 0.55 0.0
-1.14849 0.6 0.0
-1.15745 0.65 0.0
-1.16155 0.75 0.0
-1.14917 0.8 0.0
-1.14883 0.7 0.0
-1.09625 0 0.0
-1.09661 0.1 0.0
-1.09393 0.05 0.0
-1.09697 0.2 0.0
-1.08929 0.15 0.0
-1.15687 0.85 0.0
-1.14985 1 0.0
-1.15219 0.95 0.0
-1.14951 0.9 0.0
-1.09733 0.3 0.0
-1.08465 0.25 0.0
-1.09769 0.4 0.0
-1.08 0.35 0.0
-1.08661 0.45 0.0
-1.09804 0.5 0.0
-1.12082 0.55 0.0
-1.10916 0.8 0.0
-1.10629 0.7 0.0
-1.0984 0.6 0.0
-1.11616 0.65 0.0
-1.11149 0.75 0.0
-1.04604 0 0.0
-1.04623 0.05 0.0
-1.04642 0.1 0.0
-1.0468 0.2 0.0
-1.03911 0.15 0.0
-1.09948 0.9 0.0
-1.0993 0.85 0.0
-1.09984 1 0.0
-1.09966 0.95 0.0
-1.04718 0.3 0.0
-1.03449 0.25 0.0
-1.04756 0.4 0.0
-1.02986 0.35 0.0
-1.04775 0.45 0.0
-1.04794 0.5 0.0
-1.04813 0.55 0.0
-1.05911 0.8 0.0
-1.04831 0.6 0.0
-1.06376 0.7 0.0
-1.0485 0.65 0.0
-1.04888 0.75 0.0
-0.995833 0 0.0
-0.991231 0.1 0.0
-0.996033 0.05 0.0
-0.986629 0.2 0.0
-0.98893 0.15 0.0
-1.05447 0.9 0.0
-1.04926 0.85 0.0
-1.04983 1 0.0
-1.04964 0.95 0.0
-0.984328 0.25 0.0
-0.99703 0.3 0.0
-0.997429 0.4 0.0
-0.997628 0.45 0.0
-0.979726 0.35 0.0
-0.997827 0.5 0.0
-0.998027 0.55 0.0
-0.998226 0.6 0.0
-0.961416 0.475 0.0
-1.00907 0.8 0.0
-0.998426 0.65 0.0
-0.998625 0.7 0.0
-1.01138 0.75 0.0
-0.945625 0 0.0
-0.946044 0.1 0.0
-0.943334 0.05 0.0
-0.946463 0.2 0.0
-0.938752 0.15 0.0
-1.00444 0.9 0.0
-1.00675 0.85 0.0
-0.999821 1 0.0
-1.00213 0.95 0.0
-0.93417 0.25 0.0
-0.946881 0.3 0.0
-0.9473 0.4 0.0
-0.929588 0.35 0.0
-0.925005 0.45 0.0
-0.960371 0.525 0.0
-0.959325 0.575 0.0
-0.958279 0.625 0.0
-0.922714 0.5 0.0
-0.959017 0.8 0.0
-0.957233 0.675 0.0
-0.952999 0.7125 0.0
-0.948766 0.75 0.0
-0.895417 0 0.0
-0.895855 0.1 0.0
-0.893136 0.05 0.0
-0.896294 0.2 0.0
-0.888573 0.15 0.0
-0.949184 0.85 0.0
-0.954415 0.9 0.0
-0.949812 1 0.0
-0.949603 0.95 0.0
-0.884011 0.25 0.0
-0.896733 0.3 0.0
-0.874887 0.45 0.0
-0.879449 0.35 0.0
-0.897171 0.4 0.0
-0.920423 0.55 0.0
-0.918132 0.6 0.0
-0.915841 0.65 0.0
-0.872606 0.5 0.0
-0.908968 0.8 0.0
-0.91355 0.7 0.0
-0.898707 0.75 0.0
-0.845208 0 0.0
-0.845438 0.05 0.0
-0.845667 0.1 0.0
-0.845896 0.15 0.0
-0.833853 0.25 0.0
-0.846126 0.2 0.0
-0.899146 0.85 0.0
-0.904386 0.9 0.0
-0.899584 0.95 0.0
-0.899804 1 0.0
-0.838062 0.35 0.0
[...]
POINT_DATA 10839
VECTORS Velocity float
0.21 0 0.0
0.24 0 0.0
0.2275 0 0.0
0.2475 0 0.0
0.25 0 0.0
0.2475 0 0.0
0 0 0.0
0.0475 0 0.0
0.1275 0 0.0
0.09 0 0.0
0.09 0 0.0
0.1275 0 0.0
0.1875 0 0.0
0.16 0 0.0
0.195557 -2.26877e-05 0.0
0.242841 -3.09969e-05 0.0
0.215776 -2.7024e-05 0.0
0.231406 -3.04794e-05 0.0
0.248725 -3.30089e-05 0.0
0.24 0 0.0
0.24284 -3.09256e-05 0.0
0.24852 -3.17872e-05 0.0
0 0 0.0
0.0622238 -3.93088e-06 0.0
0.0322267 -2.59647e-06 0.0
0.16 0 0.0
0.1875 0 0.0
0.21 0 0.0
0.2275 0 0.0
0.193592 -2.54641e-05 0.0
0.138887 -1.41073e-05 0.0
0 0 0.0
0.0475 0 0.0
0.0998416 -9.78225e-06 0.0
0.0622207 -3.97451e-06 0.0
0.0998461 -1.02239e-05 0.0
0.138891 -1.42359e-05 0.0
0.17438 -3.57506e-05 0.0
0.201605 -4.90282e-05 0.0
0.235787 -5.99294e-05 0.0
0.244085 -6.27244e-05 0.0
0.223601 -8.03609e-05 0.0
0.249751 -6.55449e-05 0.0
0.249044 -7.30485e-05 0.0
0.231404 -3.09744e-05 0.0
0.244081 -6.19761e-05 0.0
0 0 0.0
0.0361072 -5.03008e-06 0.0
0.0736119 -1.40841e-05 0.0
0.0622475 -1.54386e-05 0.0
0.174371 -3.52167e-05 0.0
0.220162 -4.90251e-05 0.0
0.201595 -4.90952e-05 0.0
0.115549 -2.10653e-05 0.0
0.146676 -3.26929e-05 0.0
0 0 0.0
0.0360878 -3.385e-06 0.0
0.0693666 -1.10016e-05 0.0
0.0899844 -2.18738e-05 0.0
0.10939 -2.96273e-05 0.0
0.146691 -3.20673e-05 0.0
0.178901 -6.00177e-05 0.0
0.206293 -7.85758e-05 0.0
0.2145 -0.000106007 0.0
0.238526 -9.40345e-05 0.0
0.24735 -9.79453e-05 0.0
0.229606 -0.000119773 0.0
0.226324 -8.44423e-05 0.0
0.249983 -9.84341e-05 0.0
0.246427 -9.57501e-05 0.0
0.23668 -9.01183e-05 0.0
0 0 0.0
0.0322488 -5.69063e-06 0.0
0.0956947 -3.36639e-05 0.0
0.0694262 -2.53613e-05 0.0
0.178877 -5.90919e-05 0.0
0.206269 -7.91607e-05 0.0
0.127477 -4.54888e-05 0.0
0.165874 -7.48269e-05 0.0
0.152326 -5.35084e-05 0.0
0 0 0.0
0.0360805 -4.87113e-06 0.0
0.0621973 -1.52719e-05 0.0
0.0956318 -3.42911e-05 0.0
0.127523 -4.59372e-05 0.0
0.15666 -6.68437e-05 0.0
0.115598 -5.27762e-05 0.0
0.193625 -0.000110529 0.0
0.21814 -0.000140042 0.0
0.240939 -0.000127666 0.0
0.247737 -0.00013243 0.0
0.25 -0.000133883 0.0
0.234397 -0.000162257 0.0
0.229577 -0.000118104 0.0
0.247728 -0.000132134 0.0
0.24092 -0.000127433 0.0
0 0 0.0
0.0344842 -7.89122e-06 0.0
0.103117 -5.18777e-05 0.0
0.0622983 -2.57025e-05 0.0
0.189728 -9.38329e-05 0.0
0.21299 -0.000131309 0.0
0.170536 -0.000101651 0.0
0.144332 -7.53469e-05 0.0
0 0 0.0
0.0399001 -8.39996e-06 0.0
0.0997894 -4.71113e-05 0.0
0.0693243 -2.49369e-05 0.0
0.170622 -0.000101791 0.0
0.144419 -7.69882e-05 0.0
0.124373 -7.81181e-05 0.0
0.183647 -0.000128866 0.0
0.204129 -0.000154448 0.0
0.222036 -0.000182028 0.0
0.249109 -0.000176009 0.0
0.244026 -0.000171295 0.0
0.249119 -0.00017602 0.0
0.238549 -0.000206914 0.0
0.234354 -0.000161288 0.0
0.244883 -0.000185604 0.0
0 0 0.0
0.0322876 -8.36373e-06 0.0
0.0940687 -5.45758e-05 0.0
0.0652106 -3.25697e-05 0.0
0.196698 -0.000140965 0.0
0.217873 -0.000173411 0.0
0.177442 -0.00014314 0.0
0.148694 -9.96547e-05 0.0
0.120333 -6.9637e-05 0.0
0 0 0.0
0.0343938 -7.9652e-06 0.0
0.0716491 -3.2652e-05 0.0
0.15242 -0.000111884 0.0
0.127608 -9.71816e-05 0.0
0.187574 -0.000160098 0.0
0.211948 -0.000199683 0.0
0.248606 -0.000218817 0.0
0.225682 -0.00022641 0.0
0.249782 -0.000220416 0.0
0.246473 -0.000216682 0.0
0.242063 -0.000253938 0.0
0.238491 -0.000206316 0.0
0 0 0.0
0.0338681 -1.04969e-05 0.0
0.099985 -7.30761e-05 0.0
0.0695354 -4.34468e-05 0.0
0.206264 -0.000186847 0.0
0.222408 -0.000218022 0.0
0.18998 -0.000194319 0.0
0.168259 -0.000156724 0.0
0.14301 -0.000120027 0.0
0.124199 -8.83942e-05 0.0
0.0970899 -5.92627e-05 0.0
0 0 0.0
0.0360254 -1.01588e-05 0.0
0.067322 -3.50257e-05 0.0
0.130326 -0.000117668 0.0
0.168477 -0.000157528 0.0
0.199468 -0.000205805 0.0
0.218374 -0.000241786 0.0
0.241994 -0.000254547 0.0
0.25 -0.000265782 0.0
0.24799 -0.000262663 0.0
0.229078 -0.00027306 0.0
0.244936 -0.000302906 0.0
0.24874 -0.000279039 0.0
0.234448 -0.000260918 0.0
0 0 0.0
0.0362241 -1.35522e-05 0.0
0.122648 -0.000120702 0.0
0.0712168 -5.14733e-05 0.0
0.208354 -0.000228964 0.0
0.22513 -0.000272866 0.0
0.198054 -0.000237926 0.0
0.177732 -0.000196783 0.0
0.146533 -0.00014484 0.0
0.11914 -0.000100968 0.0
0.0970587 -6.73076e-05 0.0
0 0 0.0
0.0349451 -1.13826e-05 0.0
0.0672868 -3.94788e-05 0.0
0.152292 -0.000164906 0.0
0.17801 -0.000201496 0.0
0.21011 -0.000255235 0.0
0.24486 -0.000302819 0.0
0.24942 -0.000311129 0.0
0.232221 -0.000321787 0.0
0.244195 -0.000345106 0.0
0.249989 -0.000368554 0.0
0.249131 -0.000327072 0.0
0.235916 -0.000313074 0.0
0.212956 -0.000312375 0.0
0 0 0.0
0.0371506 -1.59856e-05 0.0
0.141098 -0.000168404 0.0
0.0999427 -0.000101565 0.0
0.0665846 -5.01901e-05 0.0
0.213634 -0.000279139 0.0
0.186615 -0.000242913 0.0
0.165094 -0.00019746 0.0
0.122251 -0.000121303 0.0
0.0928765 -7.39188e-05 0.0
0 0 0.0
0.0349172 -1.27193e-05 0.0
0.0642385 -4.19555e-05 0.0
0.165587 -0.000211269 0.0
0.186959 -0.000248457 0.0
0.158111 -0.000221286 0.0
0.247093 -0.000354473 0.0
0.248693 -0.000408053 0.0
0.231046 -0.000361844 0.0
0.240522 -0.000386284 0.0
0.248756 -0.000407717 0.0
0.240206 -0.000360693 0.0
0.229262 -0.000354511 0.0
0.199172 -0.000305939 0.0
0.218626 -0.000366087 0.0
0 0 0.0
0.0346364 -1.56896e-05 0.0
0.126153 -0.000163807 0.0
0.0681606 -5.67767e-05 0.0
0.0988014 -0.000110723 0.0
0.208091 -0.0003199 0.0
0.189769 -0.000278699 0.0
0.168137 -0.000231107 0.0
0.140631 -0.000167081 0.0
0.0954221 -8.80637e-05 0.0
0 0 0.0
0.0332631 -1.30248e-05 0.0
0.0660709 -5.00059e-05 0.0
0.183211 -0.000289172 0.0
0.159247 -0.000247969 0.0
0.244901 -0.000420919 0.0
0.249661 -0.000462462 0.0
0.235955 -0.000424085 0.0
0.244855 -0.000448339 0.0
0.249377 -0.000461289 0.0
0.238625 -0.000426377 0.0
0.218429 -0.000385266 0.0
0.203093 -0.000357527 0.0
0.223362 -0.000419087 0.0
0 0 0.0
0.0477884 -3.13904e-05 0.0
0.127901 -0.000187018 0.0
0.0904027 -0.000103952 0.0
0.202618 -0.000344252 0.0
0.177979 -0.000282872 0.0
0.147902 -0.000211937 0.0
0.118734 -0.000138616 0.0
0.078045 -7.38798e-05 0.0
0 0 0.0
0.0342439 -1.53534e-05 0.0
0.187817 -0.000342943 0.0
0.160383 -0.000276225 0.0
0.246455 -0.000481644 0.0
0.25 -0.000519295 0.0
0.240134 -0.000490273 0.0
0.247574 -0.000540878 0.0
0.239865 -0.000489853 0.0
0.227301 -0.000453441 0.0
0.20974 -0.000403209 0.0
0.227714 -0.000476134 0.0
0.210277 -0.000420364 0.0
0 0 0.0
0.0478485 -3.50187e-05 0.0
0.127992 -0.00020902 0.0
0.0904811 -0.000114368 0.0
0.187184 -0.000341074 0.0
0.159635 -0.000267027 0.0
0.0472154 -3.07533e-05 0.0
0.127103 -0.000184363 0.0
0.0896097 -0.000101681 0.0
0 0 0.0
0.18789 -0.00038587 0.0
0.16047 -0.000309507 0.0
0.247423 -0.000547099 0.0
0.249999 -0.000585758 0.0
0.240165 -0.000553352 0.0
0.24759 -0.000608707 0.0
0.227256 -0.00051116 0.0
0.239834 -0.000552251 0.0
0.187111 -0.000383631 0.0
0.20968 -0.000454214 0.0
0.227753 -0.0005232 0.0
0.21034 -0.000473039 0.0
0 0 0.0
0.0479146 -3.84234e-05 0.0
0.128094 -0.00023261 0.0
0.0905876 -0.000128341 0.0
0.127011 -0.000206782 0.0
0.159551 -0.000299937 0.0
0.0471594 -3.41043e-05 0.0
0.089524 -0.000113075 0.0
0 0 0.0
0.187973 -0.000431379 0.0
0.160567 -0.000345358 0.0
0.247406 -0.000614735 0.0
0.249999 -0.000656909 0.0
0.227796 -0.000574426 0.0
0.240214 -0.000648076 0.0
0.247608 -0.000681889 0.0
0.227212 -0.000560153 0.0
0.239799 -0.000619281 0.0
0.18705 -0.000416382 0.0
0.209612 -0.000508662 0.0
0.21041 -0.000529304 0.0
0 0 0.0
0.0479922 -4.27362e-05 0.0
0.128226 -0.000261873 0.0
0.0906961 -0.000141832 0.0
0.126926 -0.000226018 0.0
0.159456 -0.000334273 0.0
0.0470913 -3.78731e-05 0.0
0.0894291 -0.000124866 0.0
0 0 0.0
0.160676 -0.000383411 0.0
0.188091 -0.00049237 0.0
0.247387 -0.000687268 0.0
0.249998 -0.000733315 0.0
0.240247 -0.000708155 0.0
0.227877 -0.000665152 0.0
0.247629 -0.00075954 0.0
0.239759 -0.000690735 0.0
0.227166 -0.000613581 0.0
0.18696 -0.000463565 0.0
0.209535 -0.000566574 0.0
0.21049 -0.000590136 0.0
0 0 0.0
0.0480703 -4.71426e-05 0.0
0.128336 -0.00028567 0.0
0.090816 -0.000156547 0.0
0.126816 -0.000250246 0.0
0.15935 -0.000371361 0.0
0 0 0.0
0.0893231 -0.000138106 0.0
0.0470227 -4.16051e-05 0.0
0.188198 -0.000548004 0.0
0.160799 -0.00042527 0.0
0.227933 -0.000725657 0.0
0.247366 -0.000765914 0.0
0.249998 -0.00081608 0.0
0.247646 -0.000825012 0.0
0.240283 -0.000770973 0.0
0.239714 -0.000768161 0.0
0.227102 -0.000682803 0.0
0.186832 -0.000527206 0.0
0.209449 -0.000629864 0.0
0.210578 -0.000655148 0.0
0 0 0.0
0.0481593 -5.19782e-05 0.0
0.090935 -0.000170643 0.0
0.128476 -0.000315292 0.0
0.126672 -0.000280379 0.0
0.159232 -0.000411161 0.0
0 0 0.0
0.0469404 -4.57365e-05 0.0
0.0892191 -0.000150298 0.0
0.188287 -0.000591313 0.0
0.160935 -0.000470717 0.0
0.227992 -0.000790621 0.0
0.240352 -0.000891312 0.0
0.247341 -0.000851173 0.0
0.249997 -0.000905244 0.0
0.247666 -0.000893902 0.0
0.239664 -0.000851929 0.0
0.227032 -0.000757875 0.0
0.186746 -0.000569196 0.0
0.209354 -0.000697302 0.0
0.210677 -0.000726336 0.0
0 0 0.0
0.0482583 -5.70729e-05 0.0
0.128658 -0.00035393 0.0
0.0910958 -0.00019067 0.0
0.126555 -0.000304716 0.0
0.1591 -0.000454196 0.0
0.0468582 -4.96397e-05 0.0
0 0 0.0
0.089079 -0.000166691 0.0
0.161086 -0.0005202 0.0
0.18845 -0.000669731 0.0
0.228105 -0.000906472 0.0
0.24041 -0.000988264 0.0
0.247692 -0.00099078 0.0
0.247301 -0.00098542 0.0
0.249996 -0.00100379 0.0
0.239608 -0.000944868 0.0
0.226923 -0.000867552 0.0
0.186587 -0.000643943 0.0
0.209247 -0.000771789 0.0
0.210786 -0.000803274 0.0
0 0 0.0
0.0483663 -6.26639e-05 0.0
0.0912571 -0.000209242 0.0
0.161252 -0.000572701 0.0
0.128807 -0.000383949 0.0
0.126403 -0.000335329 0.0
0.158983 -0.000491131 0.0
0.0467628 -5.47324e-05 0.0
0 0 0.0
0.0889509 -0.000181596 0.0
0.210889 -0.000874582 0.0
0.188561 -0.000722908 0.0
0.240459 -0.00107005 0.0
0.228197 -0.00100439 0.0
0.247737 -0.00114394 0.0
0.249995 -0.00110968 0.0
0.247276 -0.00106529 0.0
0.239546 -0.00104414 0.0
0.226848 -0.000941765 0.0
0.18648 -0.00069317 0.0
0.158791 -0.000551947 0.0
0.209128 -0.000851475 0.0
0 0 0.0
0.0914188 -0.000228906 0.0
0.0484934 -6.97469e-05 0.0
0.161399 -0.0006208 0.0
0.129027 -0.000430907 0.0
0.126235 -0.000369038 0.0
0 0 0.0
0.0466585 -6.00068e-05 0.0
0.0887803 -0.00020117 0.0
0.211002 -0.000950134 0.0
0.18876 -0.000819306 0.0
0.240513 -0.00115796 0.0
0.228301 -0.00111008 0.0
0.247762 -0.00123787 0.0
0.249993 -0.00122634 0.0
0.24725 -0.00115292 0.0
0.158648 -0.000593854 0.0
0.209017 -0.000924877 0.0
0.239476 -0.00115157 0.0
0.226766 -0.00102243 0.0
0.186326 -0.000764331 0.0
0 0 0.0
0.0486188 -7.61642e-05 0.0
0.091612 -0.000251836 0.0
0.1616 -0.000683866 0.0
0.129243 -0.000475365 0.0
0.088608 -0.000220008 0.0
0.126021 -0.000411097 0.0
0 0 0.0
0.0465386 -6.61306e-05 0.0
0.211146 -0.00104843 0.0
0.188942 -0.000904651 0.0
0.240587 -0.00127813 0.0
0.228415 -0.00122598 0.0
0.247791 -0.00133816 0.0
0.249993 -0.00135484 0.0
0.247193 -0.00132749 0.0
0.158455 -0.000652614 0.0
0.2394 -0.00127123 0.0
0.208896 -0.00100194 0.0
0.226619 -0.0011677 0.0
0.186109 -0.000864368 0.0
0 0 0.0
0.0918494 -0.000280509 0.0
0.0487639 -8.39439e-05 0.0
0.161866 -0.000768149 0.0
0.129479 -0.000524279 0.0
0.0884393 -0.000239066 0.0
0.125814 -0.000452271 0.0
0 0 0.0
0.0464122 -7.25618e-05 0.0
0.189141 -0.00099922 0.0
0.211306 -0.00115728 0.0
0.240669 -0.00141188 0.0
0.247832 -0.0014742 0.0
0.228541 -0.00135249 0.0
0.24999 -0.00149237 0.0
0.24715 -0.00146706 0.0
0.239315 -0.0013997 0.0
0.24955 -0.00159921 0.0
0.15824 -0.000716803 0.0
0.226493 -0.00128771 0.0
0.208689 -0.0011355 0.0
0.185965 -0.000928523 0.0
0 0 0.0
0.0920665 -0.00030692 0.0
0.0489342 -9.368e-05 0.0
0.162065 -0.000831674 0.0
0.12974 -0.00057825 0.0
0.0882347 -0.000261804 0.0
0.125622 -0.000489713 0.0
0 0 0.0
0.0462818 -7.9164e-05 0.0
0.189361 -0.00110224 0.0
0.211483 -0.00127706 0.0
0.240756 -0.00155567 0.0
0.228681 -0.00149358 0.0
0.247896 -0.00170021 0.0
0.249174 -0.00159903 0.0
0.2438 -0.00155174 0.0
0.233434 -0.00145708 0.0
0.249985 -0.00172947 0.0
0.158004 -0.000786998 0.0
0.218083 -0.0013186 0.0
0.20329 -0.00119146 0.0
0.185701 -0.00104406 0.0
0 0 0.0
0.0923269 -0.000338786 0.0
0.0491113 -0.000102938 0.0
0.162334 -0.000917975 0.0
0.130028 -0.000638688 0.0
0.125336 -0.000544663 0.0
0.0880096 -0.000286982 0.0
0 0 0.0
0.0461249 -8.63883e-05 0.0
0.189605 -0.00121659 0.0
0.211678 -0.00140911 0.0
0.247942 -0.0018725 0.0
0.228833 -0.00164738 0.0
0.240858 -0.00171672 0.0
0.247071 -0.00170766 0.0
0.239159 -0.00163424 0.0
0.226257 -0.00151029 0.0
0.249978 -0.00190567 0.0
0.157743 -0.000865033 0.0
0.208375 -0.0013365 0.0
0.185462 -0.00114841 0.0
0 0 0.0
0.0492981 -0.000113101 0.0
0.0926151 -0.000375024 0.0
0.130297 -0.00069468 0.0
0.189872 -0.00134082 0.0
0.162632 -0.00101335 0.0
0.12506 -0.000597202 0.0
0.0877623 -0.000314559 0.0
0.0459588 -9.45733e-05 0.0
0 0 0.0
0.228972 -0.00178707 0.0
0.211894 -0.00155654 0.0
0.247986 -0.00202126 0.0
0.240965 -0.00189578 0.0
0.226092 -0.0016613 0.0
0.24701 -0.00188045 0.0
0.239044 -0.00179911 0.0
0.249974 -0.00209949 0.0
0.185202 -0.00126076 0.0
0.157397 -0.000965443 0.0
0.208093 -0.00151179 0.0
0 0 0.0
0.0495152 -0.000125823 0.0
0.0929684 -0.000419154 0.0
0.130641 -0.000766538 0.0
0.190091 -0.00144716 0.0
0.163029 -0.00114581 0.0
0.124759 -0.000653649 0.0
0.0874648 -0.000347366 0.0
0.0457792 -0.00010299 0.0
0 0 0.0
0.124425 -0.000717386 0.0
0.22912 -0.0019331 0.0
0.212205 -0.0017738 0.0
0.241133 -0.0021772 0.0
0.24803 -0.00217828 0.0
0.225845 -0.00188829 0.0
0.238921 -0.00197859 0.0
0.246945 -0.00207229 0.0
0.249964 -0.00231284 0.0
0.184915 -0.0013844 0.0
0.157073 -0.00106248 0.0
0.207852 -0.0016651 0.0
0 0 0.0
0.0497552 -0.000139271 0.0
0.0933261 -0.000464668 0.0
0.131023 -0.000848553 0.0
0.19041 -0.00159609 0.0
0.163401 -0.00126842 0.0
0.0455789 -0.000113604 0.0
0.0871625 -0.000381296 0.0
0 0 0.0
0.124118 -0.000773897 0.0
0.229318 -0.00213693 0.0
0.212475 -0.00196059 0.0
0.241268 -0.00240132 0.0
0.248089 -0.00240419 0.0
0.225671 -0.00204429 0.0
0.238785 -0.00217606 0.0
0.249956 -0.00254925 0.0
0.246835 -0.00238326 0.0
0.184678 -0.0014825 0.0
0.156718 -0.00116606 0.0
0.207586 -0.00182847 0.0
0 0 0.0
0.0500193 -0.000154011 0.0
0.0937192 -0.000514081 0.0
0.131509 -0.000952408 0.0
0.19085 -0.00180739 0.0
0.21277 -0.00216903 0.0
0.163808 -0.00140593 0.0
0.045375 -0.000123498 0.0
0.0868349 -0.000417014 0.0
0 0 0.0
0.123723 -0.000847873 0.0
0.229612 -0.00243847 0.0
0.241384 -0.00260209 0.0
0.248155 -0.00265243 0.0
0.249944 -0.00274448 0.0
0.225489 -0.00220851 0.0
0.238626 -0.00239721 0.0
0.246748 -0.00262397 0.0
0.156327 -0.00128044 0.0
0.184337 -0.0016275 0.0
0.20729 -0.00200783 0.0
0 0 0.0
0.0503323 -0.000172859 0.0
0.0941589 -0.000572577 0.0
0.131985 -0.00105919 0.0
0.191147 -0.00195335 0.0
0.213093 -0.00239582 0.0
0.16426 -0.00155879 0.0
0.0451392 -0.000134574 0.0
0.0864747 -0.000456131 0.0
0 0 0.0
0.155989 -0.001373 0.0
0.0860819 -0.000496787 0.0
0.123223 -0.000940062 0.0
0.229858 -0.0027064 0.0
0.241506 -0.00280939 0.0
0.248255 -0.00305734 0.0
0.249935 -0.00294911 0.0
0.246674 -0.00282896 0.0
0.225244 -0.00242507 0.0
0.238387 -0.00274016 0.0
0.183861 -0.00182485 0.0
0.207016 -0.00217888 0.0
0.230079 -0.00293436 0.0
0 0 0.0
0.0506632 -0.00019287 0.0
0.132511 -0.00117943 0.0
0.094646 -0.000639688 0.0
0.213451 -0.00265658 0.0
0.191682 -0.00221942 0.0
0.164757 -0.00173024 0.0
0.0448705 -0.000146957 0.0
0 0 0.0
0.183544 -0.00195914 0.0
0.155526 -0.00150535 0.0
0.122737 -0.00103079 0.0
0.044585 -0.000161347 0.0
0.0856486 -0.000544112 0.0
0.241676 -0.00310473 0.0
0.248314 -0.00330224 0.0
0.249912 -0.00325031 0.0
0.249896 -0.00349989 0.0
0.246588 -0.00304647 0.0
0.224967 -0.00266642 0.0
0.23818 -0.00301522 0.0
0.206715 -0.00235276 0.0
0.230307 -0.0031863 0.0
0.0510166 -0.000216106 0.0
0 0 0.0
0.133002 -0.001291 0.0
0.0951851 -0.000713721 0.0
0.21384 -0.00294409 0.0
0.192041 -0.00240258 0.0
0.165308 -0.00192531 0.0
0 0 0.0
0.183089 -0.00214222 0.0
0.154911 -0.00167547 0.0
0.122293 -0.00110696 0.0
0.0442946 -0.000175036 0.0
0.0851778 -0.000593682 0.0
0.241928 -0.0035731 0.0
0.248376 -0.00355875 0.0
0.249871 -0.00376189 0.0
0.246414 -0.00349228 0.0
0.224667 -0.00292563 0.0
0.237962 -0.00331494 0.0
0.206208 -0.00265526 0.0
0.230621 -0.00353088 0.0
0 0 0.0
0.0514282 -0.000244014 0.0
0.133636 -0.00144217 0.0
0.0957295 -0.000792429 0.0
0.165914 -0.00214156 0.0
0.214268 -0.00327019 0.0
0.192691 -0.00273711 0.0
0 0 0.0
0 0 0.0
0.182583 -0.00234719 0.0
0.15434 -0.00183574 0.0
0.121722 -0.00121052 0.0
0.0846634 -0.000647136 0.0
0.0439607 -0.000189819 0.0
0.242129 -0.00395067 0.0
0.248451 -0.0039295 0.0
0.237764 -0.00357382 0.0
0.249836 -0.0041423 0.0
0.246267 -0.00384748 0.0
0.22433 -0.00321409 0.0
0.205765 -0.0029088 0.0
0.242295 -0.00428634 0.0
0.230945 -0.00391387 0.0
0.0518863 -0.000273001 0.0
0.0963905 -0.000884666 0.0
0.134345 -0.00161876 0.0
0.166448 -0.00234384 0.0
0.214737 -0.00363133 0.0
0.193123 -0.00297806 0.0
0 0 0.0
0 0 0.0
0.153847 -0.00196378 0.0
0.181884 -0.00261975 0.0
0.0841586 -0.000696187 0.0
0.121 -0.00133649 0.0
0.0435957 -0.000207408 0.0
0.248573 -0.00451993 0.0
0.249783 -0.00456598 0.0
0.205282 -0.00318452 0.0
0.237546 -0.0038457 0.0
0.246145 -0.00414614 0.0
0.223817 -0.00363745 0.0
0.242474 -0.00463587 0.0
0.231444 -0.00450133 0.0
0.215242 -0.00404144 0.0
0.0524354 -0.00031042 0.0
0.0971363 -0.00100085 0.0
0.135254 -0.00185431 0.0
0.167178 -0.00261719 0.0
0.193906 -0.00341834 0.0
0 0 0.0
0 0 0.0
0.153035 -0.00217752 0.0
0.181259 -0.00286706 0.0
0.0834885 -0.000764229 0.0
0.120307 -0.00145296 0.0
0.0431832 -0.000224222 0.0
0.246005 -0.0044644 0.0
0.249721 -0.00502081 0.0
0.248644 -0.00499487 0.0
0.204748 -0.00348114 0.0
0.237253 -0.00422229 0.0
0.223388 -0.00399527 0.0
0.180572 -0.00312963 0.0
0.242791 -0.00533284 0.0
0 0 0.0
0.231822 -0.00501073 0.0
0.194603 -0.00383318 0.0
0.215784 -0.00449867 0.0
0.0530085 -0.000355021 0.0
0.136012 -0.00206549 0.0
0.0980712 -0.00116225 0.0
0.168147 -0.00302569 0.0
0 0 0.0
0 0 0.0
0 0 0.0
0 0 0.0
0 0 0.0
0.0427768 -0.000240211 0.0
0.119548 -0.00158209 0.0
0.152284 -0.00237497 0.0
0.0828911 -0.000823166 0.0
0.2458 -0.00489595 0.0
0.249636 -0.00552275 0.0
0.248718 -0.00551441 0.0
0.222996 -0.00429447 0.0
0.204154 -0.00380252 0.0
0.236768 -0.00479597 0.0
0.203608 -0.00409279 0.0
0.180013 -0.00333354 0.0
0.243017 -0.00590797 0.0
0.232232 -0.005562 0.0
0 0 0.0
6.77594e-05 -3.44532e-05 0.0
0 0 0.0
-9.56027e-05 8.52353e-05 0.0
0.216373 -0.00502464 0.0
0.195172 -0.00417925 0.0
0.053725 -0.000415157 0.0
0.136993 -0.0023478 0.0
0.0990409 -0.00134237 0.0
0.169063 -0.00343227 0.0
0 0 0.0
0 0 0.0
0 0 0.0
-5.24363e-05 -0.000125154 0.0
3.71273e-05 -0.000172411 0.0
0.000132332 -0.000144032 0.0
0 0 0.0
0.0423113 -0.000260763 0.0
0.118854 -0.0016938 0.0
0.151464 -0.00258144 0.0
0.0820998 -0.000896962 0.0
0.245571 -0.00537645 0.0
0.249526 -0.0060669 0.0
0.248778 -0.00607726 0.0
0.222572 -0.0046193 0.0
0.236461 -0.00516541 0.0
0.203011 -0.00439264 0.0
0.178997 -0.00369669 0.0
0.243252 -0.00653205 0.0
0.235751 -0.00624128 0.0
0.225384 -0.00583264 0.0
0 0 0.0
0.000184519 -4.88284e-05 0.0
0 0 0.0
0 0 0.0
-0.000385098 0.000609968 0.0
-0.000279371 0.000137311 0.0
0.212134 -0.00534195 0.0
0.195969 -0.00470964 0.0
0.100033 -0.00154154 0.0
0.0544885 -0.000495164 0.0
0.138091 -0.00270116 0.0
0.17005 -0.0039108 0.0
0 0 0.0
8.39172e-06 -0.000284018 0.0
-0.000116447 -0.000169936 0.0
0.000108896 -0.000249992 0.0
0.000244129 -0.000138425 0.0
0 0 0.0
0.0418103 -0.000281329 0.0
0.117971 -0.00183321 0.0
0.150572 -0.00279366 0.0
0.0813124 -0.000969237 0.0
0.2453 -0.00588927 0.0
0.249394 -0.00665385 0.0
0.24882 -0.00669039 0.0
0.221795 -0.00519847 0.0
0.236115 -0.00554264 0.0
0.202245 -0.00477611 0.0
0.149595 -0.00303101 0.0
0.178092 -0.00401513 0.0
0.243431 -0.00706729 0.0
0.232929 -0.00662962 0.0
0.217439 -0.00609783 0.0
0 0 0.0
0.000299437 -3.08685e-05 0.0
0 0 0.0
0 0 0.0
0 0 0.0
0 0 0.0
-0.000407531 0.000186449 0.0
-0.000143668 0.000758328 0.0
-0.000458366 0.00108173 0.0
-0.000998301 0.00156435 0.0
-0.000690698 0.000749358 0.0
0 0 0.0
-0.000118111 0.00214167 0.0
0.197029 -0.00551252 0.0
0.1709 -0.00437937 0.0
0 0 0.0
0.0554834 -0.000614315 0.0
0.101286 -0.00182946 0.0
0.139508 -0.00325839 0.0
0 0 0.0
0 0 0.0
-8.60496e-05 -0.000141189 0.0
0.000108435 -0.000151879 0.0