# vtk DataFile Version 3.0
Mesh NS-CD Problem
ASCII
DATASET UNSTRUCTURED_GRID
POINTS 10839 float
-2 0.3 0.0
-2 0.4 0.0
-2 0.35 0.0
-2 0.45 0.0
-2 0.5 0.0
-2 0.55 0.0
-2 0 0.0
-2 0.05 0.0
-2 0.85 0.0
-2 0.9 0.0
-2 0.1 0.0
-2 0.15 0.0
-2 0.25 0.0
-2 0.2 0.0
-1.96653 0.266667 0.0
-1.96524 0.415385 0.0
-1.96485 0.315 0.0
-1.96348 0.363636 0.0
-1.96414 0.464286 0.0
-2 0.6 0.0
-1.96538 0.584615 0.0
-1.96538 0.538462 0.0
-1.94979 0 0.0
-1.96653 0.0666666 0.0
-1.93306 0.0333333 0.0
-2 0.8 0.0
-2 0.75 0.0
-2 0.7 0.0
-2 0.65 0.0
-1.96249 0.7375 0.0
-1.96666 0.833333 0.0
-2 1 0.0
-2 0.95 0.0
-1.96249 0.8875 0.0
-1.96666 0.933333 0.0
-1.96234 0.1125 0.0
-1.96653 0.166667 0.0
-1.93724 0.225 0.0
-1.92971 0.28 0.0
-1.93048 0.380769 0.0
-1.93048 0.423077 0.0
-1.89958 0.3375 0.0
-1.9292 0.484203 0.0
-1.92117 0.530907 0.0
-1.96363 0.636364 0.0
-1.93076 0.576923 0.0
-1.89958 0 0.0
-1.88703 0.0375 0.0
-1.90963 0.08 0.0
-1.86611 0.0666666 0.0
-1.93749 0.775 0.0
-1.93635 0.672727 0.0
-1.92999 0.72 0.0
-1.93332 0.866667 0.0
-1.92856 0.821429 0.0
-1.94999 1 0.0
-1.92499 0.9625 0.0
-1.92499 0.925 0.0
-1.89998 0.9 0.0
-1.89958 0.125 0.0
-1.92827 0.178571 0.0
-1.89958 0.233333 0.0
-1.89045 0.290909 0.0
-1.86096 0.311538 0.0
-1.89241 0.392857 0.0
-1.89334 0.448489 0.0
-1.85655 0.357143 0.0
-1.89614 0.653846 0.0
-1.89427 0.504121 0.0
-1.8952 0.559753 0.0
-1.89614 0.615385 0.0
-1.84937 0 0.0
-1.83264 0.0333333 0.0
-1.85655 0.107143 0.0
-1.81172 0.075 0.0
-1.89998 0.766667 0.0
-1.89089 0.709091 0.0
-1.87498 0.85 0.0
-1.85998 0.79 0.0
-1.88748 0.8125 0.0
-1.89998 1 0.0
-1.88748 0.9625 0.0
-1.86664 0.933333 0.0
-1.85712 0.892857 0.0
-1.87448 0.15 0.0
-1.86611 0.194444 0.0
-1.83264 0.133333 0.0
-1.83264 0.2625 0.0
-1.82068 0.321429 0.0
-1.85664 0.404762 0.0
-1.85674 0.452381 0.0
-1.85683 0.5 0.0
-1.81184 0.375 0.0
-1.85712 0.642857 0.0
-1.85693 0.547619 0.0
-1.85702 0.595238 0.0
-1.79917 0 0.0
-1.78482 0.0357143 0.0
-1.79917 0.116667 0.0
-1.76569 0.0666666 0.0
-1.85452 0.745455 0.0
-1.82689 0.692308 0.0
-1.81815 0.781818 0.0
-1.82497 0.825 0.0
-1.84997 1 0.0
-1.8333 0.958333 0.0
-1.81247 0.8875 0.0
-1.81247 0.925 0.0
-1.81742 0.218182 0.0
-1.82427 0.175 0.0
-1.77634 0.145455 0.0
-1.79144 0.242308 0.0
-1.78482 0.285714 0.0
-1.77469 0.332653 0.0
-1.81215 0.529762 0.0
-1.81194 0.422619 0.0
-1.81203 0.470238 0.0
-1.76714 0.392857 0.0
-1.81234 0.625 0.0
-1.79732 0.571429 0.0
-1.74896 0 0.0
-1.73222 0.0333333 0.0
-1.75398 0.105 0.0
-1.71883 0.07 0.0
-1.79227 0.730769 0.0
-1.78007 0.679121 0.0
-1.75765 0.769231 0.0
-1.78178 0.818182 0.0
-1.78996 0.86 0.0
-1.79996 1 0.0
-1.78568 0.964286 0.0
-1.76663 0.922222 0.0
-1.76569 0.1875 0.0
-1.73222 0.15 0.0
-1.74896 0.25 0.0
-1.73714 0.304762 0.0
-1.76743 0.537202 0.0
-1.72869 0.343878 0.0
-1.76732 0.485119 0.0
-1.76723 0.440476 0.0
-1.72243 0.410714 0.0
-1.76757 0.607143 0.0
-1.69875 0 0.0
-1.68369 0.035 0.0
-1.69875 0.1125 0.0
-1.66528 0.075 0.0
-1.74341 0.708974 0.0
-1.73324 0.665934 0.0
-1.70441 0.74478 0.0
-1.71423 0.785714 0.0
-1.72303 0.826923 0.0
-1.74541 0.854545 0.0
-1.74541 0.890909 0.0
-1.74996 1 0.0
-1.73745 0.9625 0.0
-1.71359 0.927273 0.0
-1.68716 0.153846 0.0
-1.7131 0.214286 0.0
-1.70725 0.275 0.0
-1.69712 0.321939 0.0
-1.72279 0.589286 0.0
-1.72261 0.5 0.0
-1.7227 0.544643 0.0
-1.6827 0.355102 0.0
-1.67773 0.428571 0.0
-1.70763 0.464286 0.0
-1.70369 0.62449 0.0
-1.64854 0 0.0
-1.63181 0.0375 0.0
-1.64137 0.142857 0.0
-1.61764 0.0769231 0.0
-1.69458 0.703846 0.0
-1.67471 0.657437 0.0
-1.66143 0.727637 0.0
-1.67125 0.768571 0.0
-1.67851 0.821429 0.0
-1.68841 0.861538 0.0
-1.70904 0.890909 0.0
-1.69995 1 0.0
-1.68176 0.963636 0.0
-1.67267 0.927273 0.0
-1.65427 0.187143 0.0
-1.66718 0.231429 0.0
-1.66554 0.3 0.0
-1.67802 0.571429 0.0
-1.67792 0.523809 0.0
-1.6367 0.366327 0.0
-1.63682 0.423469 0.0
-1.62568 0.502976 0.0
-1.6629 0.470238 0.0
-1.65254 0.618367 0.0
-1.6059 0.307143 0.0
-1.59833 0 0.0
-1.58288 0.0384615 0.0
-1.60563 0.169643 0.0
-1.58179 0.112271 0.0
-1.56964 0.0714286 0.0
-1.64574 0.690385 0.0
-1.62827 0.751429 0.0
-1.63371 0.791071 0.0
-1.64279 0.857143 0.0
-1.65378 0.896154 0.0
-1.64994 1 0.0
-1.6363 0.963636 0.0
-1.61916 0.930769 0.0
-1.61345 0.209107 0.0
-1.62126 0.248571 0.0
-1.56989 0.196429 0.0
-1.63324 0.553571 0.0
-1.58846 0.535714 0.0
-1.59408 0.361905 0.0
-1.59161 0.402211 0.0
-1.58832 0.464286 0.0
-1.61504 0.598581 0.0
-1.59683 0.64359 0.0
-1.57899 0.274107 0.0
-1.56176 0.322381 0.0
-1.54812 0 0.0
-1.53378 0.0357143 0.0
-1.54593 0.147619 0.0
-1.53385 0.0732143 0.0
-1.53393 0.110714 0.0
-1.58522 0.704286 0.0
-1.58709 0.745 0.0
-1.58896 0.785714 0.0
-1.60695 0.830357 0.0
-1.60707 0.892857 0.0
-1.59993 1 0.0
-1.58454 0.965385 0.0
-1.57135 0.928571 0.0
-1.55209 0.241071 0.0
-1.5291 0.198214 0.0
-1.56936 0.570918 0.0
-1.54369 0.517857 0.0
-1.5464 0.380952 0.0
-1.54564 0.427721 0.0
-1.54488 0.47449 0.0
-1.55026 0.606122 0.0
-1.54222 0.677143 0.0
-1.52943 0.282857 0.0
-1.52143 0.33619 0.0
-1.49792 0 0.0
-1.49802 0.05 0.0
-1.49822 0.15 0.0
-1.49312 0.1 0.0
-1.5423 0.717143 0.0
-1.54419 0.767857 0.0
-1.54727 0.819048 0.0
-1.57122 0.861905 0.0
-1.53553 0.914286 0.0
-1.54992 1 0.0
-1.53563 0.964286 0.0
-1.49842 0.25 0.0
-1.48831 0.2 0.0
-1.5214 0.558929 0.0
-1.49891 0.5 0.0
-1.49871 0.4 0.0
-1.47631 0.45 0.0
-1.49911 0.6 0.0
-1.49921 0.65 0.0
-1.49931 0.7 0.0
-1.48111 0.35 0.0
-1.48351 0.3 0.0
-1.44771 0 0.0
-1.44782 0.05 0.0
-1.44804 0.15 0.0
-1.44793 0.1 0.0
-1.49941 0.75 0.0
-1.49951 0.8 0.0
-1.49981 0.95 0.0
-1.49961 0.85 0.0
-1.49971 0.9 0.0
-1.49991 1 0.0
-1.44826 0.25 0.0
-1.43815 0.2 0.0
-1.47151 0.55 0.0
-1.44881 0.5 0.0
-1.44859 0.4 0.0
-1.42619 0.45 0.0
-1.44913 0.65 0.0
-1.44902 0.6 0.0
-1.44935 0.75 0.0
-1.44924 0.7 0.0
-1.43972 0.35 0.0
-1.43336 0.3 0.0
-1.3975 0 0.0
-1.39762 0.05 0.0
-1.39786 0.15 0.0
-1.39274 0.1 0.0
-1.44957 0.85 0.0
-1.44946 0.8 0.0
-1.4523 0.95 0.0
-1.44968 0.9 0.0
-1.4499 1 0.0
-1.3981 0.25 0.0
-1.38798 0.2 0.0
-1.42141 0.55 0.0
-1.3987 0.5 0.0
-1.39834 0.35 0.0
-1.37845 0.4 0.0
-1.37607 0.45 0.0
-1.40784 0.65 0.0
-1.39894 0.6 0.0
-1.41185 0.75 0.0
-1.39918 0.7 0.0
-1.38322 0.3 0.0
-1.34729 0 0.0
-1.34492 0.05 0.0
-1.34018 0.15 0.0
-1.34255 0.1 0.0
-1.40707 0.85 0.0
-1.39941 0.8 0.0
-1.39977 0.95 0.0
-1.39965 0.9 0.0
-1.39989 1 0.0
-1.33781 0.2 0.0
-1.33544 0.25 0.0
-1.37131 0.55 0.0
-1.34859 0.5 0.0
-1.33833 0.4 0.0
-1.3307 0.35 0.0
-1.32595 0.45 0.0
-1.34885 0.6 0.0
-1.36655 0.65 0.0
-1.36179 0.75 0.0
-1.34911 0.7 0.0
-1.33307 0.3 0.0
-1.29708 0 0.0
-1.29722 0.05 0.0
-1.2975 0.15 0.0
-1.29236 0.1 0.0
-1.35703 0.85 0.0
-1.34937 0.8 0.0
-1.34988 1 0.0
-1.34962 0.9 0.0
-1.35226 0.95 0.0
-1.28528 0.25 0.0
-1.28764 0.2 0.0
-1.28931 0.35 0.0
-1.32121 0.55 0.0
-1.29848 0.5 0.0
-1.28709 0.45 0.0
-1.2982 0.4 0.0
-1.29876 0.6 0.0
-1.31647 0.65 0.0
-1.29918 0.75 0.0
-1.29904 0.7 0.0
-1.28292 0.3 0.0
-1.24687 0 0.0
-1.24702 0.05 0.0
-1.24717 0.1 0.0
-1.24732 0.15 0.0
-1.29946 0.85 0.0
-1.29932 0.8 0.0
-1.29987 1 0.0
-1.29974 0.95 0.0
-1.30462 0.9 0.0
-1.24762 0.25 0.0
-1.23747 0.2 0.0
-1.24792 0.35 0.0
-1.22807 0.4 0.0
-1.27111 0.55 0.0
-1.24837 0.5 0.0
-1.24822 0.45 0.0
-1.24867 0.6 0.0
-1.26639 0.65 0.0
-1.26167 0.75 0.0
-1.24897 0.7 0.0
-1.23277 0.3 0.0
-1.19667 0 0.0
-1.19683 0.05 0.0
-1.18964 0.15 0.0
-1.19198 0.1 0.0
-1.25695 0.85 0.0
-1.24927 0.8 0.0
-1.25223 0.95 0.0
-1.24987 1 0.0
-1.24957 0.9 0.0
-1.1873 0.2 0.0
-1.18496 0.25 0.0
-1.18028 0.35 0.0
-1.17794 0.4 0.0
-1.1981 0.45 0.0
-1.19842 0.55 0.0
-1.19826 0.5 0.0
-1.19858 0.6 0.0
-1.19874 0.65 0.0
-1.19906 0.75 0.0
-1.1989 0.7 0.0
-1.18262 0.3 0.0
-1.14646 0 0.0
-1.14663 0.05 0.0
-1.1418 0.1 0.0
-1.13713 0.2 0.0
-1.14697 0.15 0.0
-1.20691 0.85 0.0
-1.20926 0.8 0.0
-1.20221 0.95 0.0
-1.19986 1 0.0
-1.20456 0.9 0.0
-1.13997 0.3 0.0
-1.14731 0.25 0.0
-1.13781 0.4 0.0
-1.13014 0.35 0.0
-1.12548 0.45 0.0
-1.14815 0.5 0.0
-1.15962 0.55 0.0
-1.14849 0.6 0.0
-1.15745 0.65 0.0
-1.16155 0.75 0.0
-1.14917 0.8 0.0
-1.14883 0.7 0.0
-1.09625 0 0.0
-1.09661 0.1 0.0
-1.09393 0.05 0.0
-1.09697 0.2 0.0
-1.08929 0.15 0.0
-1.15687 0.85 0.0
-1.14985 1 0.0
-1.15219 0.95 0.0
-1.14951 0.9 0.0
-1.09733 0.3 0.0
-1.08465 0.25 0.0
-1.09769 0.4 0.0
-1.08 0.35 0.0
-1.08661 0.45 0.0
-1.09804 0.5 0.0
-1.12082 0.55 0.0
-1.10916 0.8 0.0
-1.10629 0.7 0.0
-1.0984 0.6 0.0
-1.11616 0.65 0.0
-1.11149 0.75 0.0
-1.04604 0 0.0
-1.04623 0.05 0.0
-1.04642 0.1 0.0
-1.0468 0.2 0.0
-1.03911 0.15 0.0
-1.09948 0.9 0.0
-1.0993 0.85 0.0
-1.09984 1 0.0
-1.09966 0.95 0.0
-1.04718 0.3 0.0
-1.03449 0.25 0.0
-1.04756 0.4 0.0
-1.02986 0.35 0.0
-1.04775 0.45 0.0
-1.04794 0.5 0.0
-1.04813 0.55 0.0
-1.05911 0.8 0.0
-1.04831 0.6 0.0
-1.06376 0.7 0.0
-1.0485 0.65 0.0
-1.04888 0.75 0.0
-0.995833 0 0.0
-0.991231 0.1 0.0
-0.996033 0.05 0.0
-0.986629 0.2 0.0
-0.98893 0.15 0.0
-1.05447 0.9 0.0
-1.04926 0.85 0.0
-1.04983 1 0.0
-1.04964 0.95 0.0
-0.984328 0.25 0.0
-0.99703 0.3 0.0
-0.997429 0.4 0.0
-0.997628 0.45 0.0
-0.979726 0.35 0.0
-0.997827 0.5 0.0
-0.998027 0.55 0.0
-0.998226 0.6 0.0
-0.961416 0.475 0.0
-1.00907 0.8 0.0
-0.998426 0.65 0.0
-0.998625 0.7 0.0
-1.01138 0.75 0.0
-0.945625 0 0.0
-0.946044 0.1 0.0
-0.943334 0.05 0.0
-0.946463 0.2 0.0
-0.938752 0.15 0.0
-1.00444 0.9 0.0
-1.00675 0.85 0.0
-0.999821 1 0.0
-1.00213 0.95 0.0
-0.93417 0.25 0.0
-0.946881 0.3 0.0
-0.9473 0.4 0.0
-0.929588 0.35 0.0
-0.925005 0.45 0.0
-0.960371 0.525 0.0
-0.959325 0.575 0.0
-0.958279 0.625 0.0
-0.922714 0.5 0.0
-0.959017 0.8 0.0
-0.957233 0.675 0.0
-0.952999 0.7125 0.0
-0.948766 0.75 0.0
-0.895417 0 0.0
-0.895855 0.1 0.0
-0.893136 0.05 0.0
-0.896294 0.2 0.0
-0.888573 0.15 0.0
-0.949184 0.85 0.0
-0.954415 0.9 0.0
-0.949812 1 0.0
-0.949603 0.95 0.0
-0.884011 0.25 0.0
-0.896733 0.3 0.0
-0.874887 0.45 0.0
-0.879449 0.35 0.0
-0.897171 0.4 0.0
-0.920423 0.55 0.0
-0.918132 0.6 0.0
-0.915841 0.65 0.0
-0.872606 0.5 0.0
-0.908968 0.8 0.0
-0.91355 0.7 0.0
-0.898707 0.75 0.0
-0.845208 0 0.0
-0.845438 0.05 0.0
-0.845667 0.1 0.0
-0.845896 0.15 0.0
-0.833853 0.25 0.0
-0.846126 0.2 0.0
-0.899146 0.85 0.0
-0.904386 0.9 0.0
-0.899584 0.95 0.0
-0.899804 1 0.0
-0.838062 0.35 0.0
[...]
POINT_DATA 10839
VECTORS Velocity float
0.21 0 0.0
0.24 0 0.0
0.2275 0 0.0
0.2475 0 0.0
0.25 0 0.0
0.2475 0 0.0
0 0 0.0
0.0475 0 0.0
0.1275 0 0.0
0.09 0 0.0
0.09 0 0.0
0.1275 0 0.0
0.1875 0 0.0
0.16 0 0.0
0.195636 -0.000566692 0.0
0.24277 -0.000436855 0.0
0.215751 -0.000702328 0.0
0.231354 -0.000669127 0.0
0.248616 -0.000178544 0.0
0.24 0 0.0
0.242768 0.000411721 0.0
0.248414 0.000142828 0.0
0 0 0.0
0.0620775 0.00105207 0.0
0.0310965 0.000342344 0.0
0.16 0 0.0
0.1875 0 0.0
0.21 0 0.0
0.2275 0 0.0
0.193684 0.000615268 0.0
0.139043 -0.000203092 0.0
0 0 0.0
0.0475 0 0.0
0.100018 -0.000914235 0.0
0.0621135 -0.00106837 0.0
0.0998815 0.000939953 0.0
0.139067 0.000184277 0.0
0.174709 -0.000944235 0.0
0.201726 -0.00161351 0.0
0.235536 -0.00130416 0.0
0.243761 -0.000917057 0.0
0.223321 -0.00272105 0.0
0.249317 -0.000196053 0.0
0.248566 0.0003948 0.0
0.231332 0.000624004 0.0
0.243764 0.000892015 0.0
0 0 0.0
0.0367371 -0.00167545 0.0
0.0740693 -0.00202113 0.0
0.0655219 -0.00640165 0.0
0.174706 0.000903085 0.0
0.220109 0.0013586 0.0
0.201753 0.00158603 0.0
0.116042 -0.000146466 0.0
0.147306 0.00076405 0.0
0 0 0.0
0.0351397 -2.99629e-05 0.0
0.0693667 0.000213338 0.0
0.0904246 0.00354989 0.0
0.110082 -0.00362812 0.0
0.147253 -0.000684416 0.0
0.179422 -0.00311454 0.0
0.206297 -0.00371463 0.0
0.213749 -0.00593079 0.0
0.237765 -0.00229375 0.0
0.246378 -0.00117721 0.0
0.228223 -0.00505039 0.0
0.225946 0.00280702 0.0
0.248957 9.92179e-05 0.0
0.245526 0.00123368 0.0
0.236062 0.00216145 0.0
0 0 0.0
0.039641 -0.00307045 0.0
0.0970498 -0.0113928 0.0
0.081424 -0.0128928 0.0
0.179422 0.00305643 0.0
0.206205 0.00356818 0.0
0.127985 0.00771064 0.0
0.165949 0.00894299 0.0
0.153072 0.00460801 0.0
0 0 0.0
0.0367329 0.00171826 0.0
0.0656702 0.00639244 0.0
0.0970268 0.0112813 0.0
0.127906 -0.00785726 0.0
0.157002 -0.00828492 0.0
0.116025 -0.0170641 0.0
0.192515 -0.0118605 0.0
0.215626 -0.0106038 0.0
0.23917 -0.00346768 0.0
0.245726 -0.00181767 0.0
0.247899 -5.87494e-05 0.0
0.230753 -0.00833185 0.0
0.228257 0.00491523 0.0
0.245736 0.00167743 0.0
0.239145 0.00336589 0.0
0 0 0.0
0.051637 -0.00414179 0.0
0.108272 -0.0213525 0.0
0.0869607 -0.0118438 0.0
0.189451 0.00834334 0.0
0.211086 0.0103589 0.0
0.16862 0.0177163 0.0
0.143328 0.0184034 0.0
0 0 0.0
0.0484868 0.00462119 0.0
0.104305 0.0191741 0.0
0.0811821 0.0127631 0.0
0.168582 -0.0178551 0.0
0.143121 -0.0185325 0.0
0.126522 -0.0270143 0.0
0.179509 -0.0220861 0.0
0.199044 -0.0198933 0.0
0.21562 -0.0170361 0.0
0.24481 0.00184942 0.0
0.239965 -0.00517633 0.0
0.244828 -0.00201824 0.0
0.230791 -0.0116897 0.0
0.230726 0.00818157 0.0
0.239803 0.00556291 0.0
0 0 0.0
0.0590394 -0.00340839 0.0
0.11081 -0.021721 0.0
0.101998 -0.0117975 0.0
0.192606 0.0196632 0.0
0.212055 0.0172379 0.0
0.171389 0.0296884 0.0
0.146194 0.0274737 0.0
0.122183 0.0248997 0.0
0 0 0.0
0.051445 0.00407017 0.0
0.093995 0.0148138 0.0
0.149445 -0.0302691 0.0
0.13339 -0.0300274 0.0
0.179947 -0.0298281 0.0
0.201653 -0.0262192 0.0
0.240478 0.00394615 0.0
0.213613 -0.0224829 0.0
0.241567 -0.00166039 0.0
0.238424 -0.00649975 0.0
0.228395 -0.0135269 0.0
0.2308 0.0113374 0.0
0 0 0.0
0.0702332 -0.00302023 0.0
0.126553 -0.0217694 0.0
0.118708 -0.0105581 0.0
0.196958 0.0266815 0.0
0.211163 0.0230065 0.0
0.179007 0.0340679 0.0
0.162232 0.0346303 0.0
0.144158 0.0327234 0.0
0.129799 0.0291451 0.0
0.114367 0.0225525 0.0
0 0 0.0
0.0640479 0.00427721 0.0
0.105058 0.0122929 0.0
0.14169 -0.0292384 0.0
0.162312 -0.0349422 0.0
0.18712 -0.032621 0.0
0.202599 -0.0283621 0.0
0.228327 0.0133156 0.0
0.235956 -9.53819e-05 0.0
0.234114 0.00664039 0.0
0.210262 -0.0247094 0.0
0.223761 -0.0129166 0.0
0.232428 -0.00601132 0.0
0.218403 0.0201398 0.0
0 0 0.0
0.0819439 -0.00253489 0.0
0.146173 -0.0233685 0.0
0.129657 -0.00840265 0.0
0.193614 0.0312494 0.0
0.205613 0.0264666 0.0
0.182972 0.0332937 0.0
0.169263 0.0345674 0.0
0.150714 0.0318678 0.0
0.136557 0.0264545 0.0
0.12292 0.0214319 0.0
0 0 0.0
0.0725935 0.00319066 0.0
0.115272 0.0103747 0.0
0.155995 -0.0309201 0.0
0.169491 -0.0347357 0.0
0.192347 -0.0317464 0.0
0.223746 0.0126914 0.0
0.22789 0.00417978 0.0
0.206213 -0.0234143 0.0
0.215912 -0.0142799 0.0
0.2186 0.000386729 0.0
0.224891 -0.00569128 0.0
0.211625 0.0209633 0.0
0.189482 -0.0278925 0.0
0 0 0.0
0.0889696 -0.00186454 0.0
0.157733 -0.0235251 0.0
0.150527 -0.0122607 0.0
0.13318 -0.00542788 0.0
0.193249 0.0301961 0.0
0.175051 0.0315861 0.0
0.16387 0.0305249 0.0
0.146231 0.0232425 0.0
0.134113 0.0163479 0.0
0 0 0.0
0.079256 0.00242777 0.0
0.123529 0.00705858 0.0
0.165514 -0.0284493 0.0
0.17526 -0.0311464 0.0
0.166565 -0.022094 0.0
0.217664 0.00982354 0.0
0.210916 0.00602303 0.0
0.199838 -0.0218162 0.0
0.205763 -0.0163991 0.0
0.210845 -0.00639909 0.0
0.209156 0.0171706 0.0
0.199022 0.0223697 0.0
0.181334 -0.026268 0.0
0.189948 -0.0224764 0.0
0 0 0.0
0.0874236 -0.00111616 0.0
0.161792 -0.0142238 0.0
0.138906 -0.00438006 0.0
0.15708 -0.00883859 0.0
0.185675 0.026029 0.0
0.177038 0.0269245 0.0
0.168233 0.0255363 0.0
0.157399 0.0234691 0.0
0.144689 0.0132538 0.0
0 0 0.0
0.0814132 0.0015507 0.0
0.132948 0.005349 0.0
0.175198 -0.0224672 0.0
0.170056 -0.0175544 0.0
0.205347 0.0110172 0.0
0.204449 0.00241193 0.0
0.197342 -0.0161493 0.0
0.202074 -0.0105406 0.0
0.204516 -0.00394436 0.0
0.199192 0.0145829 0.0
0.188717 0.0200322 0.0
0.182281 -0.0202317 0.0
0.189638 -0.017571 0.0
0 0 0.0
0.114806 -0.00164649 0.0
0.167175 -0.0106358 0.0
0.158093 -0.0055682 0.0
0.182292 0.0214069 0.0
0.17389 0.0208884 0.0
0.165912 0.0178152 0.0
0.15665 0.0152557 0.0
0.147028 0.00568025 0.0
0 0 0.0
0.0871621 0.00113308 0.0
0.178097 -0.016585 0.0
0.172895 -0.0136144 0.0
0.19982 0.00729174 0.0
0.198731 -0.000266129 0.0
0.194638 -0.0108948 0.0
0.195315 -0.00522925 0.0
0.194576 0.0104898 0.0
0.189801 0.0143049 0.0
0.183942 0.0163183 0.0
0.188982 -0.0132195 0.0
0.183908 -0.0151648 0.0
0 0 0.0
0.117487 -0.00100549 0.0
0.171087 -0.00748522 0.0
0.161946 -0.00397843 0.0
0.177757 0.0163498 0.0
0.171955 0.0143216 0.0
0.114365 0.00160333 0.0
0.166538 0.010559 0.0
0.156881 0.00574495 0.0
0 0 0.0
0.179016 -0.0119665 0.0
0.175427 -0.00971609 0.0
0.194871 0.00457533 0.0
0.193761 -0.000260908 0.0
0.190812 -0.00811077 0.0
0.191381 -0.003881 0.0
0.187253 0.0103101 0.0
0.190685 0.00758458 0.0
0.178692 0.0116759 0.0
0.183106 0.0117326 0.0
0.187107 -0.0101602 0.0
0.183192 -0.0109745 0.0
0 0 0.0
0.119509 -0.000558967 0.0
0.173962 -0.0052309 0.0
0.16518 -0.0026678 0.0
0.17069 0.00731604 0.0
0.174508 0.0101651 0.0
0.116892 0.000985337 0.0
0.161318 0.00389104 0.0
0 0 0.0
0.179825 -0.00853066 0.0
0.177273 -0.00688116 0.0
0.190919 0.00317429 0.0
0.190081 -0.000322633 0.0
0.185715 -0.00774267 0.0
0.187185 -0.00516669 0.0
0.188393 -0.0028906 0.0
0.185764 0.00769854 0.0
0.187916 0.00529856 0.0
0.179269 0.00893276 0.0
0.182534 0.00823448 0.0
0.182742 -0.00786527 0.0
0 0 0.0
0.120467 -0.000540448 0.0
0.17628 -0.00347775 0.0
0.167205 -0.00189022 0.0
0.173045 0.0053043 0.0
0.17647 0.00707744 0.0
0.118664 0.000571206 0.0
0.164311 0.00260944 0.0
0 0 0.0
0.178631 -0.00487469 0.0
0.180523 -0.0055607 0.0
0.188089 0.00212677 0.0
0.187543 -0.000364202 0.0
0.185852 -0.00401106 0.0
0.18419 -0.00498137 0.0
0.186365 -0.00217701 0.0
0.185951 0.00359096 0.0
0.184617 0.00566608 0.0
0.179805 0.0061713 0.0
0.182135 0.00566896 0.0
0.182453 -0.00563085 0.0
0 0 0.0
0.121005 -0.000403907 0.0
0.17748 -0.00259822 0.0
0.168612 -0.00133776 0.0
0.175125 0.00360061 0.0
0.177819 0.0048592 0.0
0 0 0.0
0.166476 0.00173979 0.0
0.119773 0.000402122 0.0
0.180948 -0.00399878 0.0
0.179601 -0.00346758 0.0
0.183577 -0.00383159 0.0
0.186084 0.00133168 0.0
0.185712 -0.000424995 0.0
0.185215 -0.00179096 0.0
0.184803 -0.00315131 0.0
0.184566 0.00235547 0.0
0.183612 0.00382859 0.0
0.180283 0.00378446 0.0
0.181848 0.00383145 0.0
0.182275 -0.00406648 0.0
0 0 0.0
0.121794 -0.000193423 0.0
0.169424 -0.000942171 0.0
0.178468 -0.00185737 0.0
0.17677 0.00227427 0.0
0.178775 0.00328111 0.0
0 0 0.0
0.120454 0.00026602 0.0
0.167477 0.00120721 0.0
0.181216 -0.0031465 0.0
0.180354 -0.00251251 0.0
0.183125 -0.00299392 0.0
0.183592 -0.00216189 0.0
0.184686 0.000750156 0.0
0.184458 -0.000497103 0.0
0.184343 -0.00151109 0.0
0.18359 0.00145583 0.0
0.182898 0.00250566 0.0
0.180473 0.00278298 0.0
0.181638 0.00251233 0.0
0.18218 -0.00300276 0.0
0 0 0.0
0.12229 -5.92013e-05 0.0
0.179538 -0.00130547 0.0
0.170475 -0.000632438 0.0
0.177573 0.00159138 0.0
0.179425 0.00216272 0.0
0.120731 0.000155127 0.0
0 0 0.0
0.168413 0.000753135 0.0
0.180872 -0.00187825 0.0
0.181532 -0.00218414 0.0
0.182663 -0.00210744 0.0
0.183055 -0.00174769 0.0
0.183532 -0.00128553 0.0
0.183347 0.000144524 0.0
0.183572 -0.000580313 0.0
0.182896 0.00079466 0.0
0.182238 0.00128123 0.0
0.180663 0.00157266 0.0
0.181471 0.00156539 0.0
0.182136 -0.00228588 0.0
0 0 0.0
0.122778 -8.68346e-05 0.0
0.170848 -0.000550057 0.0
0.181304 -0.0014694 0.0
0.179895 -0.001053 0.0
0.178244 0.00100692 0.0
0.179775 0.00150864 0.0
0.121172 8.16895e-05 0.0
0 0 0.0
0.169092 0.000479375 0.0
0.182131 -0.00187715 0.0
0.181714 -0.0018189 0.0
0.18275 -0.00153323 0.0
0.182461 -0.00173334 0.0
0.182779 -0.00114278 0.0
0.182957 -0.000678468 0.0
0.182882 -0.000103211 0.0
0.182398 0.000294212 0.0
0.18196 0.000749927 0.0
0.18073 0.00105532 0.0
0.180138 0.00079491 0.0
0.181331 0.000873208 0.0
0 0 0.0
0.171505 -0.00050985 0.0
0.123035 -0.000254695 0.0
0.181596 -0.00125177 0.0
0.180432 -0.000880058 0.0
0.178641 0.00057987 0.0
0 0 0.0
0.121379 4.95469e-06 0.0
0.169543 0.000234602 0.0
0.182156 -0.00160672 0.0
0.181936 -0.00144291 0.0
0.182534 -0.00140766 0.0
0.182345 -0.00151646 0.0
0.182526 -0.00113953 0.0
0.182528 -0.000796046 0.0
0.182513 -0.000320915 0.0
0.180246 0.000450075 0.0
0.181227 0.000422813 0.0
0.182039 -9.77535e-05 0.0
0.181731 0.000328806 0.0
0.180756 0.000526381 0.0
0 0 0.0
0.122684 -0.000154928 0.0
0.171549 -0.000479903 0.0
0.181868 -0.00108883 0.0
0.180811 -0.000781005 0.0
0.169786 9.08794e-05 0.0
0.178852 0.000234018 0.0
0 0 0.0
0.121791 -5.99898e-05 0.0
0.182204 -0.00142607 0.0
0.182119 -0.00129034 0.0
0.182353 -0.00134377 0.0
0.182292 -0.00142296 0.0
0.18233 -0.00117339 0.0
0.182224 -0.000935804 0.0
0.182031 -0.000673102 0.0
0.180314 0.00011738 0.0
0.181765 -0.000424982 0.0
0.181123 6.11499e-05 0.0
0.18144 -0.000205775 0.0
0.18073 3.64102e-05 0.0
0 0 0.0
0.171964 -0.000419361 0.0
0.123618 -4.79502e-05 0.0
0.182169 -0.00100145 0.0
0.181141 -0.000736094 0.0
0.169754 -9.24917e-06 0.0
0.179029 1.0294e-06 0.0
0 0 0.0
0.121175 3.79515e-05 0.0
0.18229 -0.00123722 0.0
0.18228 -0.00136093 0.0
0.18225 -0.00137068 0.0
0.182161 -0.00126036 0.0
0.182286 -0.00142282 0.0
0.182013 -0.00109706 0.0
0.18181 -0.000907127 0.0
0.181554 -0.000709533 0.0
0.18199 -0.00130368 0.0
0.180319 -0.000157443 0.0
0.181265 -0.000527472 0.0
0.180962 -0.000376746 0.0
0.180679 -0.000197001 0.0
0 0 0.0
0.172474 -0.00040758 0.0
0.123783 -0.000192099 0.0
0.182373 -0.00101269 0.0
0.181391 -0.000756602 0.0
0.169787 -0.000142628 0.0
0.179064 -0.000148622 0.0
0 0 0.0
0.121287 -6.32959e-05 0.0
0.182475 -0.00125973 0.0
0.18238 -0.00138468 0.0
0.182189 -0.00146163 0.0
0.18232 -0.00150675 0.0
0.18201 -0.00148686 0.0
0.181785 -0.00116537 0.0
0.181543 -0.00100657 0.0
0.181272 -0.000842332 0.0
0.181799 -0.00140155 0.0
0.180256 -0.000383646 0.0
0.180989 -0.00068835 0.0
0.180771 -0.000603823 0.0
0.180559 -0.00052768 0.0
0 0 0.0
0.172608 -0.000473947 0.0
0.123879 -0.00018689 0.0
0.182633 -0.00107733 0.0
0.181709 -0.000816508 0.0
0.179013 -0.000317852 0.0
0.169728 -0.000274127 0.0
0 0 0.0
0.121493 -0.000196012 0.0
0.182675 -0.00135612 0.0
0.182505 -0.00148491 0.0
0.181949 -0.00170059 0.0
0.182382 -0.00165762 0.0
0.182183 -0.00162368 0.0
0.181551 -0.00128265 0.0
0.18128 -0.00114326 0.0
0.180998 -0.000995613 0.0
0.181692 -0.00164728 0.0
0.180144 -0.000576777 0.0
0.18072 -0.00084719 0.0
0.180415 -0.000766145 0.0
0 0 0.0
0.123704 -0.000198991 0.0
0.172902 -0.000549757 0.0
0.182095 -0.000892255 0.0
0.1829 -0.00151566 0.0
0.182894 -0.00119518 0.0
0.178869 -0.000462851 0.0
0.169586 -0.000284 0.0
0.121058 -6.19975e-05 0.0
0 0 0.0
0.182456 -0.00183408 0.0
0.182659 -0.00165811 0.0
0.181925 -0.00190733 0.0
0.182197 -0.00185142 0.0
0.180831 -0.00127189 0.0
0.181413 -0.00155004 0.0
0.18112 -0.00142155 0.0
0.181611 -0.00193576 0.0
0.180243 -0.000995133 0.0
0.179934 -0.000790951 0.0
0.180497 -0.00118428 0.0
0 0 0.0
0.124474 -0.000201641 0.0
0.173397 -0.000606414 0.0
0.182368 -0.00100976 0.0
0.183085 -0.00167636 0.0
0.183281 -0.00142382 0.0
0.178702 -0.000592486 0.0
0.16926 -0.000321477 0.0
0.120672 -9.4461e-05 0.0
0 0 0.0
0.178558 -0.000731202 0.0
0.182545 -0.00204602 0.0
0.182893 -0.0019923 0.0
0.182255 -0.00227586 0.0
0.18191 -0.00214551 0.0
0.180587 -0.0016615 0.0
0.180965 -0.00171841 0.0
0.181287 -0.00185213 0.0
0.18153 -0.00227497 0.0
0.180035 -0.00122568 0.0
0.179712 -0.000982776 0.0
0.180293 -0.0014576 0.0
0 0 0.0
0.124882 -0.00018918 0.0
0.173932 -0.000733244 0.0
0.182764 -0.00120966 0.0
0.183374 -0.00194526 0.0
0.183648 -0.0016792 0.0
0.120344 -0.000122614 0.0
0.169188 -0.000435822 0.0
0 0 0.0
0.178204 -0.000853252 0.0
0.18268 -0.00239201 0.0
0.183116 -0.00233211 0.0
0.182319 -0.00266306 0.0
0.181891 -0.0025162 0.0
0.180409 -0.00192764 0.0
0.180801 -0.0020444 0.0
0.181453 -0.00267466 0.0
0.181102 -0.0023593 0.0
0.179842 -0.00140462 0.0
0.179449 -0.00118418 0.0
0.180057 -0.00174236 0.0
0 0 0.0
0.125561 -0.000281073 0.0
0.174356 -0.000949946 0.0
0.183253 -0.00149071 0.0
0.183773 -0.0023911 0.0
0.183365 -0.00276007 0.0
0.184065 -0.00201517 0.0
0.120308 -0.000216543 0.0
0.168772 -0.000590044 0.0
0 0 0.0
0.177896 -0.0010058 0.0
0.182887 -0.00296593 0.0
0.182376 -0.0030366 0.0
0.181882 -0.00295909 0.0
0.181383 -0.00302196 0.0
0.180218 -0.00220959 0.0
0.180601 -0.00242222 0.0
0.180951 -0.00277448 0.0
0.179146 -0.00139263 0.0
0.179552 -0.00166353 0.0
0.179775 -0.00205462 0.0
0 0 0.0
0.126022 -0.000537001 0.0
0.175107 -0.00118522 0.0
0.183859 -0.00182512 0.0
0.184071 -0.00273647 0.0
0.183642 -0.00326344 0.0
0.184544 -0.00241051 0.0
0.119976 -0.000320337 0.0
0.168486 -0.00067688 0.0
0 0 0.0
0.178818 -0.0015611 0.0
0.167926 -0.000694856 0.0
0.177361 -0.0011703 0.0
0.183069 -0.00353655 0.0
0.182431 -0.00344763 0.0
0.181853 -0.003744 0.0
0.181313 -0.00340501 0.0
0.180824 -0.00314461 0.0
0.179951 -0.00258528 0.0
0.180294 -0.00302694 0.0
0.179108 -0.00201399 0.0
0.1795 -0.00235493 0.0
0.183244 -0.0040626 0.0
0 0 0.0
0.126794 -0.000574794 0.0
0.184611 -0.00219051 0.0
0.175884 -0.00145582 0.0
0.183977 -0.00390914 0.0
0.184601 -0.00342251 0.0
0.185076 -0.00290471 0.0
0.119744 -0.000303091 0.0
0 0 0.0
0.178788 -0.00225674 0.0
0.178378 -0.00180144 0.0
0.177046 -0.0013404 0.0
0.11886 -0.000157631 0.0
0.16762 -0.000768384 0.0
0.182518 -0.0040859 0.0
0.181823 -0.00425261 0.0
0.181179 -0.0039976 0.0
0.181067 -0.00451447 0.0
0.180664 -0.00355275 0.0
0.179621 -0.00302166 0.0
0.179995 -0.00353768 0.0
0.179173 -0.00266838 0.0
0.183394 -0.00467957 0.0
0.127444 -0.000663032 0.0
0 0 0.0
0.185184 -0.00255534 0.0
0.176723 -0.00169393 0.0
0.184336 -0.00468433 0.0
0.184997 -0.00394557 0.0
0.185754 -0.00351467 0.0
0 0 0.0
0.178308 -0.00259432 0.0
0.177712 -0.00213447 0.0
0.176435 -0.00150259 0.0
0.118605 -0.000237398 0.0
0.166868 -0.000914431 0.0
0.182607 -0.00517946 0.0
0.181788 -0.00481892 0.0
0.180914 -0.00507765 0.0
0.180317 -0.00443232 0.0
0.179244 -0.00350369 0.0
0.179665 -0.00411446 0.0
0.178597 -0.0032289 0.0
0.183633 -0.0055913 0.0
0 0 0.0
0.128888 -0.000737622 0.0
0.186124 -0.00312343 0.0
0.177917 -0.00201512 0.0
0.186523 -0.00428547 0.0
0.18474 -0.00564401 0.0
0.185729 -0.00498776 0.0
0 0 0.0
0 0 0.0
0.177738 -0.00298971 0.0
0.177135 -0.00245631 0.0
0.175832 -0.00173525 0.0
0.166213 -0.00107745 0.0
0.118106 -0.000426188 0.0
0.182646 -0.00614131 0.0
0.181684 -0.00568522 0.0
0.179341 -0.00462845 0.0
0.180671 -0.00593534 0.0
0.17998 -0.0051741 0.0
0.178783 -0.0040558 0.0
0.178042 -0.00371237 0.0
0.182647 -0.00704737 0.0
0.183816 -0.00669161 0.0
0.130385 -0.000898709 0.0
0.179044 -0.00250341 0.0
0.187209 -0.00390555 0.0
0.187274 -0.00504994 0.0
0.18518 -0.00679572 0.0
0.186226 -0.00584036 0.0
0 0 0.0
0 0 0.0
0.176553 -0.00271593 0.0
0.176908 -0.00351902 0.0
0.165585 -0.00121684 0.0
0.174922 -0.00201798 0.0
0.117511 -0.000436089 0.0
0.181466 -0.00715298 0.0
0.180326 -0.00693467 0.0
0.177415 -0.00424863 0.0
0.178958 -0.00518848 0.0
0.179676 -0.00581899 0.0
0.178032 -0.00489714 0.0
0.182615 -0.00803746 0.0
0.184089 -0.00853158 0.0
0.185618 -0.0082397 0.0
0.131781 -0.00134676 0.0
0.18072 -0.00324648 0.0
0.188848 -0.00516046 0.0
0.188323 -0.00620388 0.0
0.187133 -0.00753042 0.0
0 0 0.0
0 0 0.0
0.175588 -0.00313485 0.0
0.176121 -0.00399856 0.0
0.164574 -0.00135399 0.0
0.174147 -0.00225813 0.0
0.116578 -0.000467488 0.0
0.179309 -0.00652568 0.0
0.179884 -0.00804876 0.0
0.181152 -0.00842242 0.0
0.176676 -0.00483215 0.0
0.1784 -0.00597737 0.0
0.177343 -0.00561924 0.0
0.175224 -0.00450948 0.0
0.182379 -0.0101507 0.0
0 0 0.0
0.184123 -0.0102715 0.0
0.187918 -0.00926023 0.0
0.186009 -0.00995568 0.0
0.134205 -0.00175865 0.0
0.190309 -0.00632565 0.0
0.183226 -0.0043989 0.0
0.189697 -0.00816447 0.0
0 0 0.0
0 0 0.0
0 0 0.0
0 0 0.0
0 0 0.0
0.115678 -0.00050622 0.0
0.173329 -0.00251792 0.0
0.174647 -0.0035249 0.0
0.163681 -0.00145105 0.0
0.178724 -0.00751631 0.0
0.179286 -0.00932186 0.0
0.180748 -0.009858 0.0
0.176682 -0.0062343 0.0
0.175802 -0.00546938 0.0
0.177404 -0.00722088 0.0
0.174966 -0.00604216 0.0
0.174444 -0.00490603 0.0
0.181974 -0.011993 0.0
0.184054 -0.0122247 0.0
0 0 0.0
-0.000278977 0.000102779 0.0
0 0 0.0
4.80258e-05 -0.000911609 0.0
0.186341 -0.0121054 0.0
0.188573 -0.0108465 0.0
0.137359 -0.00231163 0.0
0.192154 -0.00803919 0.0
0.185895 -0.00583374 0.0
0.19115 -0.0103749 0.0
0 0 0.0
0 0 0.0
0 0 0.0
7.56018e-05 -0.000543513 0.0
2.4198e-05 0.000354273 0.0
-6.29512e-05 4.98543e-05 0.0
0 0 0.0
0.114959 -0.000530799 0.0
0.17229 -0.00273793 0.0
0.173598 -0.0039299 0.0
0.162528 -0.0016136 0.0
0.178003 -0.00863445 0.0
0.178509 -0.0107381 0.0
0.18014 -0.0114726 0.0
0.175917 -0.00690982 0.0
0.176695 -0.00802356 0.0
0.174014 -0.00663435 0.0
0.173002 -0.00560508 0.0
0.181378 -0.0140462 0.0
0.183178 -0.0143044 0.0
0.185128 -0.014304 0.0
0 0 0.0
-0.000264794 -7.82555e-05 0.0
0 0 0.0
0 0 0.0
0.000302564 -0.0043611 0.0
0.000597708 -0.00370626 0.0
0.187134 -0.0141739 0.0
0.189322 -0.0135059 0.0
0.18903 -0.00762371 0.0
0.141338 -0.00316483 0.0
0.194415 -0.0104323 0.0
0.192565 -0.0132527 0.0
0 0 0.0
0.000478762 -0.000960074 0.0
0.000605161 -0.00227926 0.0
0.000449046 -0.000589149 0.0
0.000696628 -0.000815043 0.0
0 0 0.0
0.113975 -0.000582323 0.0
0.171089 -0.00302066 0.0
0.172398 -0.00433873 0.0
0.161306 -0.00177941 0.0
0.177099 -0.00985267 0.0
0.177512 -0.0122688 0.0
0.179286 -0.0132768 0.0
0.174459 -0.0080909 0.0
0.175881 -0.00885208 0.0
0.172734 -0.00736941 0.0
0.171085 -0.00477099 0.0
0.171665 -0.00618648 0.0
0.180644 -0.0158732 0.0
0.183356 -0.0163538 0.0
0.18638 -0.0168668 0.0
0 0 0.0
0.000695599 -0.000449344 0.0
0 0 0.0
0 0 0.0
0 0 0.0
0 0 0.0
0.00195323 -0.00582619 0.0
-0.000204746 -0.000794241 0.0
7.90615e-05 -0.00485892 0.0
0.00118859 -0.00990896 0.0
0.00140826 -0.00761733 0.0
0 0 0.0
-0.0012417 0.00530542 0.0
0.189881 -0.0178052 0.0
0.19363 -0.0161529 0.0
0 0 0.0
0.147226 -0.0047862 0.0
0.19312 -0.0101448 0.0
0.19747 -0.0147333 0.0
0 0 0.0
0 0 0.0
0.00160308 -0.00341946 0.0
0.00189647 -0.00246153 0.0
0.00256773 -0.00183458 0.0
0 0 0.0
0.112956 -0.000650144 0.0
0.169579 -0.00336552 0.0
0.160081 -0.00195509 0.0
0.169886 -0.00509813 0.0
0.175984 -0.011161 0.0
0.176579 -0.0134974 0.0
0.178145 -0.015262 0.0
0.173375 -0.00884015 0.0
0.174683 -0.00994459 0.0
0.171303 -0.00810884 0.0
0.17055 -0.00660987 0.0
0.184344 -0.0186666 0.0
0.179648 -0.0178491 0.0
0.18202 -0.020344 0.0
0.185611 -0.0214765 0.0
0.189882 -0.0223637 0.0
0 0 0.0
0.00195488 -0.000631226 0.0
-0.00103033 0.00265122 0.0
-0.00173255 -0.00397844 0.0
-0.000402116 -0.000338939 0.0
0.0033635 -0.00932533 0.0
0.00591421 -0.00929532 0.0
-0.000456357 -0.00613176 0.0
0.000690679 -0.0121401 0.0
0.00299115 -0.0144208 0.0
-0.0018025 0.00915032 0.0
-0.00448197 0.00189573 0.0