# vtk DataFile Version 3.0
Mesh NS-CD Problem
ASCII
DATASET UNSTRUCTURED_GRID
POINTS 10839 float
-2 0.3 0.0
-2 0.4 0.0
-2 0.35 0.0
-2 0.45 0.0
-2 0.5 0.0
-2 0.55 0.0
-2 0 0.0
-2 0.05 0.0
-2 0.85 0.0
-2 0.9 0.0
-2 0.1 0.0
-2 0.15 0.0
-2 0.25 0.0
-2 0.2 0.0
-1.96653 0.266667 0.0
-1.96524 0.415385 0.0
-1.96485 0.315 0.0
-1.96348 0.363636 0.0
-1.96414 0.464286 0.0
-2 0.6 0.0
-1.96538 0.584615 0.0
-1.96538 0.538462 0.0
-1.94979 0 0.0
-1.96653 0.0666666 0.0
-1.93306 0.0333333 0.0
-2 0.8 0.0
-2 0.75 0.0
-2 0.7 0.0
-2 0.65 0.0
-1.96249 0.7375 0.0
-1.96666 0.833333 0.0
-2 1 0.0
-2 0.95 0.0
-1.96249 0.8875 0.0
-1.96666 0.933333 0.0
-1.96234 0.1125 0.0
-1.96653 0.166667 0.0
-1.93724 0.225 0.0
-1.92971 0.28 0.0
-1.93048 0.380769 0.0
-1.93048 0.423077 0.0
-1.89958 0.3375 0.0
-1.9292 0.484203 0.0
-1.92117 0.530907 0.0
-1.96363 0.636364 0.0
-1.93076 0.576923 0.0
-1.89958 0 0.0
-1.88703 0.0375 0.0
-1.90963 0.08 0.0
-1.86611 0.0666666 0.0
-1.93749 0.775 0.0
-1.93635 0.672727 0.0
-1.92999 0.72 0.0
-1.93332 0.866667 0.0
-1.92856 0.821429 0.0
-1.94999 1 0.0
-1.92499 0.9625 0.0
-1.92499 0.925 0.0
-1.89998 0.9 0.0
-1.89958 0.125 0.0
-1.92827 0.178571 0.0
-1.89958 0.233333 0.0
-1.89045 0.290909 0.0
-1.86096 0.311538 0.0
-1.89241 0.392857 0.0
-1.89334 0.448489 0.0
-1.85655 0.357143 0.0
-1.89614 0.653846 0.0
-1.89427 0.504121 0.0
-1.8952 0.559753 0.0
-1.89614 0.615385 0.0
-1.84937 0 0.0
-1.83264 0.0333333 0.0
-1.85655 0.107143 0.0
-1.81172 0.075 0.0
-1.89998 0.766667 0.0
-1.89089 0.709091 0.0
-1.87498 0.85 0.0
-1.85998 0.79 0.0
-1.88748 0.8125 0.0
-1.89998 1 0.0
-1.88748 0.9625 0.0
-1.86664 0.933333 0.0
-1.85712 0.892857 0.0
-1.87448 0.15 0.0
-1.86611 0.194444 0.0
-1.83264 0.133333 0.0
-1.83264 0.2625 0.0
-1.82068 0.321429 0.0
-1.85664 0.404762 0.0
-1.85674 0.452381 0.0
-1.85683 0.5 0.0
-1.81184 0.375 0.0
-1.85712 0.642857 0.0
-1.85693 0.547619 0.0
-1.85702 0.595238 0.0
-1.79917 0 0.0
-1.78482 0.0357143 0.0
-1.79917 0.116667 0.0
-1.76569 0.0666666 0.0
-1.85452 0.745455 0.0
-1.82689 0.692308 0.0
-1.81815 0.781818 0.0
-1.82497 0.825 0.0
-1.84997 1 0.0
-1.8333 0.958333 0.0
-1.81247 0.8875 0.0
-1.81247 0.925 0.0
-1.81742 0.218182 0.0
-1.82427 0.175 0.0
-1.77634 0.145455 0.0
-1.79144 0.242308 0.0
-1.78482 0.285714 0.0
-1.77469 0.332653 0.0
-1.81215 0.529762 0.0
-1.81194 0.422619 0.0
-1.81203 0.470238 0.0
-1.76714 0.392857 0.0
-1.81234 0.625 0.0
-1.79732 0.571429 0.0
-1.74896 0 0.0
-1.73222 0.0333333 0.0
-1.75398 0.105 0.0
-1.71883 0.07 0.0
-1.79227 0.730769 0.0
-1.78007 0.679121 0.0
-1.75765 0.769231 0.0
-1.78178 0.818182 0.0
-1.78996 0.86 0.0
-1.79996 1 0.0
-1.78568 0.964286 0.0
-1.76663 0.922222 0.0
-1.76569 0.1875 0.0
-1.73222 0.15 0.0
-1.74896 0.25 0.0
-1.73714 0.304762 0.0
-1.76743 0.537202 0.0
-1.72869 0.343878 0.0
-1.76732 0.485119 0.0
-1.76723 0.440476 0.0
-1.72243 0.410714 0.0
-1.76757 0.607143 0.0
-1.69875 0 0.0
-1.68369 0.035 0.0
-1.69875 0.1125 0.0
-1.66528 0.075 0.0
-1.74341 0.708974 0.0
-1.73324 0.665934 0.0
-1.70441 0.74478 0.0
-1.71423 0.785714 0.0
-1.72303 0.826923 0.0
-1.74541 0.854545 0.0
-1.74541 0.890909 0.0
-1.74996 1 0.0
-1.73745 0.9625 0.0
-1.71359 0.927273 0.0
-1.68716 0.153846 0.0
-1.7131 0.214286 0.0
-1.70725 0.275 0.0
-1.69712 0.321939 0.0
-1.72279 0.589286 0.0
-1.72261 0.5 0.0
-1.7227 0.544643 0.0
-1.6827 0.355102 0.0
-1.67773 0.428571 0.0
-1.70763 0.464286 0.0
-1.70369 0.62449 0.0
-1.64854 0 0.0
-1.63181 0.0375 0.0
-1.64137 0.142857 0.0
-1.61764 0.0769231 0.0
-1.69458 0.703846 0.0
-1.67471 0.657437 0.0
-1.66143 0.727637 0.0
-1.67125 0.768571 0.0
-1.67851 0.821429 0.0
-1.68841 0.861538 0.0
-1.70904 0.890909 0.0
-1.69995 1 0.0
-1.68176 0.963636 0.0
-1.67267 0.927273 0.0
-1.65427 0.187143 0.0
-1.66718 0.231429 0.0
-1.66554 0.3 0.0
-1.67802 0.571429 0.0
-1.67792 0.523809 0.0
-1.6367 0.366327 0.0
-1.63682 0.423469 0.0
-1.62568 0.502976 0.0
-1.6629 0.470238 0.0
-1.65254 0.618367 0.0
-1.6059 0.307143 0.0
-1.59833 0 0.0
-1.58288 0.0384615 0.0
-1.60563 0.169643 0.0
-1.58179 0.112271 0.0
-1.56964 0.0714286 0.0
-1.64574 0.690385 0.0
-1.62827 0.751429 0.0
-1.63371 0.791071 0.0
-1.64279 0.857143 0.0
-1.65378 0.896154 0.0
-1.64994 1 0.0
-1.6363 0.963636 0.0
-1.61916 0.930769 0.0
-1.61345 0.209107 0.0
-1.62126 0.248571 0.0
-1.56989 0.196429 0.0
-1.63324 0.553571 0.0
-1.58846 0.535714 0.0
-1.59408 0.361905 0.0
-1.59161 0.402211 0.0
-1.58832 0.464286 0.0
-1.61504 0.598581 0.0
-1.59683 0.64359 0.0
-1.57899 0.274107 0.0
-1.56176 0.322381 0.0
-1.54812 0 0.0
-1.53378 0.0357143 0.0
-1.54593 0.147619 0.0
-1.53385 0.0732143 0.0
-1.53393 0.110714 0.0
-1.58522 0.704286 0.0
-1.58709 0.745 0.0
-1.58896 0.785714 0.0
-1.60695 0.830357 0.0
-1.60707 0.892857 0.0
-1.59993 1 0.0
-1.58454 0.965385 0.0
-1.57135 0.928571 0.0
-1.55209 0.241071 0.0
-1.5291 0.198214 0.0
-1.56936 0.570918 0.0
-1.54369 0.517857 0.0
-1.5464 0.380952 0.0
-1.54564 0.427721 0.0
-1.54488 0.47449 0.0
-1.55026 0.606122 0.0
-1.54222 0.677143 0.0
-1.52943 0.282857 0.0
-1.52143 0.33619 0.0
-1.49792 0 0.0
-1.49802 0.05 0.0
-1.49822 0.15 0.0
-1.49312 0.1 0.0
-1.5423 0.717143 0.0
-1.54419 0.767857 0.0
-1.54727 0.819048 0.0
-1.57122 0.861905 0.0
-1.53553 0.914286 0.0
-1.54992 1 0.0
-1.53563 0.964286 0.0
-1.49842 0.25 0.0
-1.48831 0.2 0.0
-1.5214 0.558929 0.0
-1.49891 0.5 0.0
-1.49871 0.4 0.0
-1.47631 0.45 0.0
-1.49911 0.6 0.0
-1.49921 0.65 0.0
-1.49931 0.7 0.0
-1.48111 0.35 0.0
-1.48351 0.3 0.0
-1.44771 0 0.0
-1.44782 0.05 0.0
-1.44804 0.15 0.0
-1.44793 0.1 0.0
-1.49941 0.75 0.0
-1.49951 0.8 0.0
-1.49981 0.95 0.0
-1.49961 0.85 0.0
-1.49971 0.9 0.0
-1.49991 1 0.0
-1.44826 0.25 0.0
-1.43815 0.2 0.0
-1.47151 0.55 0.0
-1.44881 0.5 0.0
-1.44859 0.4 0.0
-1.42619 0.45 0.0
-1.44913 0.65 0.0
-1.44902 0.6 0.0
-1.44935 0.75 0.0
-1.44924 0.7 0.0
-1.43972 0.35 0.0
-1.43336 0.3 0.0
-1.3975 0 0.0
-1.39762 0.05 0.0
-1.39786 0.15 0.0
-1.39274 0.1 0.0
-1.44957 0.85 0.0
-1.44946 0.8 0.0
-1.4523 0.95 0.0
-1.44968 0.9 0.0
-1.4499 1 0.0
-1.3981 0.25 0.0
-1.38798 0.2 0.0
-1.42141 0.55 0.0
-1.3987 0.5 0.0
-1.39834 0.35 0.0
-1.37845 0.4 0.0
-1.37607 0.45 0.0
-1.40784 0.65 0.0
-1.39894 0.6 0.0
-1.41185 0.75 0.0
-1.39918 0.7 0.0
-1.38322 0.3 0.0
-1.34729 0 0.0
-1.34492 0.05 0.0
-1.34018 0.15 0.0
-1.34255 0.1 0.0
-1.40707 0.85 0.0
-1.39941 0.8 0.0
-1.39977 0.95 0.0
-1.39965 0.9 0.0
-1.39989 1 0.0
-1.33781 0.2 0.0
-1.33544 0.25 0.0
-1.37131 0.55 0.0
-1.34859 0.5 0.0
-1.33833 0.4 0.0
-1.3307 0.35 0.0
-1.32595 0.45 0.0
-1.34885 0.6 0.0
-1.36655 0.65 0.0
-1.36179 0.75 0.0
-1.34911 0.7 0.0
-1.33307 0.3 0.0
-1.29708 0 0.0
-1.29722 0.05 0.0
-1.2975 0.15 0.0
-1.29236 0.1 0.0
-1.35703 0.85 0.0
-1.34937 0.8 0.0
-1.34988 1 0.0
-1.34962 0.9 0.0
-1.35226 0.95 0.0
-1.28528 0.25 0.0
-1.28764 0.2 0.0
-1.28931 0.35 0.0
-1.32121 0.55 0.0
-1.29848 0.5 0.0
-1.28709 0.45 0.0
-1.2982 0.4 0.0
-1.29876 0.6 0.0
-1.31647 0.65 0.0
-1.29918 0.75 0.0
-1.29904 0.7 0.0
-1.28292 0.3 0.0
-1.24687 0 0.0
-1.24702 0.05 0.0
-1.24717 0.1 0.0
-1.24732 0.15 0.0
-1.29946 0.85 0.0
-1.29932 0.8 0.0
-1.29987 1 0.0
-1.29974 0.95 0.0
-1.30462 0.9 0.0
-1.24762 0.25 0.0
-1.23747 0.2 0.0
-1.24792 0.35 0.0
-1.22807 0.4 0.0
-1.27111 0.55 0.0
-1.24837 0.5 0.0
-1.24822 0.45 0.0
-1.24867 0.6 0.0
-1.26639 0.65 0.0
-1.26167 0.75 0.0
-1.24897 0.7 0.0
-1.23277 0.3 0.0
-1.19667 0 0.0
-1.19683 0.05 0.0
-1.18964 0.15 0.0
-1.19198 0.1 0.0
-1.25695 0.85 0.0
-1.24927 0.8 0.0
-1.25223 0.95 0.0
-1.24987 1 0.0
-1.24957 0.9 0.0
-1.1873 0.2 0.0
-1.18496 0.25 0.0
-1.18028 0.35 0.0
-1.17794 0.4 0.0
-1.1981 0.45 0.0
-1.19842 0.55 0.0
-1.19826 0.5 0.0
-1.19858 0.6 0.0
-1.19874 0.65 0.0
-1.19906 0.75 0.0
-1.1989 0.7 0.0
-1.18262 0.3 0.0
-1.14646 0 0.0
-1.14663 0.05 0.0
-1.1418 0.1 0.0
-1.13713 0.2 0.0
-1.14697 0.15 0.0
-1.20691 0.85 0.0
-1.20926 0.8 0.0
-1.20221 0.95 0.0
-1.19986 1 0.0
-1.20456 0.9 0.0
-1.13997 0.3 0.0
-1.14731 0.25 0.0
-1.13781 0.4 0.0
-1.13014 0.35 0.0
-1.12548 0.45 0.0
-1.14815 0.5 0.0
-1.15962 0.55 0.0
-1.14849 0.6 0.0
-1.15745 0.65 0.0
-1.16155 0.75 0.0
-1.14917 0.8 0.0
-1.14883 0.7 0.0
-1.09625 0 0.0
-1.09661 0.1 0.0
-1.09393 0.05 0.0
-1.09697 0.2 0.0
-1.08929 0.15 0.0
-1.15687 0.85 0.0
-1.14985 1 0.0
-1.15219 0.95 0.0
-1.14951 0.9 0.0
-1.09733 0.3 0.0
-1.08465 0.25 0.0
-1.09769 0.4 0.0
-1.08 0.35 0.0
-1.08661 0.45 0.0
-1.09804 0.5 0.0
-1.12082 0.55 0.0
-1.10916 0.8 0.0
-1.10629 0.7 0.0
-1.0984 0.6 0.0
-1.11616 0.65 0.0
-1.11149 0.75 0.0
-1.04604 0 0.0
-1.04623 0.05 0.0
-1.04642 0.1 0.0
-1.0468 0.2 0.0
-1.03911 0.15 0.0
-1.09948 0.9 0.0
-1.0993 0.85 0.0
-1.09984 1 0.0
-1.09966 0.95 0.0
-1.04718 0.3 0.0
-1.03449 0.25 0.0
-1.04756 0.4 0.0
-1.02986 0.35 0.0
-1.04775 0.45 0.0
-1.04794 0.5 0.0
-1.04813 0.55 0.0
-1.05911 0.8 0.0
-1.04831 0.6 0.0
-1.06376 0.7 0.0
-1.0485 0.65 0.0
-1.04888 0.75 0.0
-0.995833 0 0.0
-0.991231 0.1 0.0
-0.996033 0.05 0.0
-0.986629 0.2 0.0
-0.98893 0.15 0.0
-1.05447 0.9 0.0
-1.04926 0.85 0.0
-1.04983 1 0.0
-1.04964 0.95 0.0
-0.984328 0.25 0.0
-0.99703 0.3 0.0
-0.997429 0.4 0.0
-0.997628 0.45 0.0
-0.979726 0.35 0.0
-0.997827 0.5 0.0
-0.998027 0.55 0.0
-0.998226 0.6 0.0
-0.961416 0.475 0.0
-1.00907 0.8 0.0
-0.998426 0.65 0.0
-0.998625 0.7 0.0
-1.01138 0.75 0.0
-0.945625 0 0.0
-0.946044 0.1 0.0
-0.943334 0.05 0.0
-0.946463 0.2 0.0
-0.938752 0.15 0.0
-1.00444 0.9 0.0
-1.00675 0.85 0.0
-0.999821 1 0.0
-1.00213 0.95 0.0
-0.93417 0.25 0.0
-0.946881 0.3 0.0
-0.9473 0.4 0.0
-0.929588 0.35 0.0
-0.925005 0.45 0.0
-0.960371 0.525 0.0
-0.959325 0.575 0.0
-0.958279 0.625 0.0
-0.922714 0.5 0.0
-0.959017 0.8 0.0
-0.957233 0.675 0.0
-0.952999 0.7125 0.0
-0.948766 0.75 0.0
-0.895417 0 0.0
-0.895855 0.1 0.0
-0.893136 0.05 0.0
-0.896294 0.2 0.0
-0.888573 0.15 0.0
-0.949184 0.85 0.0
-0.954415 0.9 0.0
-0.949812 1 0.0
-0.949603 0.95 0.0
-0.884011 0.25 0.0
-0.896733 0.3 0.0
-0.874887 0.45 0.0
-0.879449 0.35 0.0
-0.897171 0.4 0.0
-0.920423 0.55 0.0
-0.918132 0.6 0.0
-0.915841 0.65 0.0
-0.872606 0.5 0.0
-0.908968 0.8 0.0
-0.91355 0.7 0.0
-0.898707 0.75 0.0
-0.845208 0 0.0
-0.845438 0.05 0.0
-0.845667 0.1 0.0
-0.845896 0.15 0.0
-0.833853 0.25 0.0
-0.846126 0.2 0.0
-0.899146 0.85 0.0
-0.904386 0.9 0.0
-0.899584 0.95 0.0
-0.899804 1 0.0
-0.838062 0.35 0.0
[...]
POINT_DATA 10839
VECTORS Velocity float
0.21 0 0.0
0.24 0 0.0
0.2275 0 0.0
0.2475 0 0.0
0.25 0 0.0
0.2475 0 0.0
0 0 0.0
0.0475 0 0.0
0.1275 0 0.0
0.09 0 0.0
0.09 0 0.0
0.1275 0 0.0
0.1875 0 0.0
0.16 0 0.0
0.19538 -0.00270122 0.0
0.242588 -0.00132968 0.0
0.215579 -0.00232296 0.0
0.231154 -0.00214429 0.0
0.248422 -0.00051541 0.0
0.24 0 0.0
0.242618 0.00128477 0.0
0.248215 0.000456319 0.0
0 0 0.0
0.0622965 -0.00350349 0.0
0.0382019 -0.00512227 0.0
0.16 0 0.0
0.1875 0 0.0
0.21 0 0.0
0.2275 0 0.0
0.193318 0.00342776 0.0
0.138679 0.00306707 0.0
0 0 0.0
0.0475 0 0.0
0.0998662 0.00493409 0.0
0.0622794 0.00354474 0.0
0.0995981 -0.00473228 0.0
0.138741 -0.00327895 0.0
0.173902 -0.0114518 0.0
0.200472 -0.0112163 0.0
0.234538 -0.00577974 0.0
0.242886 -0.00375616 0.0
0.220447 -0.0165132 0.0
0.248287 -0.000721728 0.0
0.247302 0.0018113 0.0
0.231008 0.0018482 0.0
0.242888 0.0038243 0.0
0 0 0.0
0.0581296 -0.00849966 0.0
0.0812641 -0.0221656 0.0
0.0881409 -0.0201704 0.0
0.173928 0.0114272 0.0
0.21943 0.00711585 0.0
0.200517 0.0111623 0.0
0.115001 0.0177142 0.0
0.145625 0.0177399 0.0
0 0 0.0
0.0448506 0.00709309 0.0
0.0744277 0.0175208 0.0
0.0950504 0.0282449 0.0
0.110784 -0.0321525 0.0
0.145695 -0.0176139 0.0
0.175043 -0.0278968 0.0
0.201672 -0.0247155 0.0
0.205593 -0.0317638 0.0
0.234233 -0.0121889 0.0
0.243226 -0.00585164 0.0
0.219943 -0.0255875 0.0
0.222544 0.0167823 0.0
0.24577 0.000543779 0.0
0.242527 0.00637547 0.0
0.232869 0.0120956 0.0
0 0 0.0
0.0720296 -0.00562549 0.0
0.108818 -0.0336057 0.0
0.112082 -0.0189266 0.0
0.175292 0.0277997 0.0
0.201819 0.0245227 0.0
0.127395 0.0401318 0.0
0.159813 0.0435563 0.0
0.148569 0.0364355 0.0
0 0 0.0
0.0579166 0.00842283 0.0
0.0878482 0.0200664 0.0
0.108796 0.0337316 0.0
0.12754 -0.0403461 0.0
0.151889 -0.0429471 0.0
0.125507 -0.0387237 0.0
0.182411 -0.0442656 0.0
0.20283 -0.0370437 0.0
0.231375 -0.0170069 0.0
0.238207 -0.0086283 0.0
0.240476 -4.826e-05 0.0
0.216254 -0.0279477 0.0
0.219809 0.0253886 0.0
0.238265 0.00835421 0.0
0.231372 0.0169315 0.0
0 0 0.0
0.0889857 -0.00476473 0.0
0.128276 -0.0305081 0.0
0.123624 -0.0118804 0.0
0.181361 0.0413167 0.0
0.198878 0.0386394 0.0
0.162653 0.0465242 0.0
0.143856 0.0447754 0.0
0 0 0.0
0.0828251 0.00857742 0.0
0.123531 0.031303 0.0
0.111893 0.0188342 0.0
0.162509 -0.0465645 0.0
0.14392 -0.0449936 0.0
0.141435 -0.0332981 0.0
0.1717 -0.0444231 0.0
0.186255 -0.0414756 0.0
0.198758 -0.034993 0.0
0.230163 0.00673798 0.0
0.225319 -0.0178031 0.0
0.230214 -0.00693967 0.0
0.210803 -0.0239744 0.0
0.216441 0.0275295 0.0
0.222806 0.0167694 0.0
0 0 0.0
0.0948342 -0.00273915 0.0
0.13747 -0.0208558 0.0
0.136307 -0.00918447 0.0
0.181004 0.0433359 0.0
0.196433 0.0367419 0.0
0.168029 0.0392569 0.0
0.151433 0.0400225 0.0
0.137229 0.0346608 0.0
0 0 0.0
0.0887293 0.00470953 0.0
0.1273 0.0148825 0.0
0.154868 -0.0380589 0.0
0.150482 -0.026562 0.0
0.17385 -0.0379307 0.0
0.187507 -0.0336453 0.0
0.21935 0.00844107 0.0
0.19526 -0.0284227 0.0
0.220187 -0.00355408 0.0
0.217438 -0.0139111 0.0
0.205019 -0.0175287 0.0
0.210723 0.0238484 0.0
0 0 0.0
0.104783 -0.00207714 0.0
0.150055 -0.0156374 0.0
0.147838 -0.00694182 0.0
0.184637 0.035269 0.0
0.193659 0.030031 0.0
0.174944 0.0297651 0.0
0.165914 0.0303093 0.0
0.156232 0.0281629 0.0
0.147268 0.0279487 0.0
0.139976 0.0204685 0.0
0 0 0.0
0.101597 0.0036073 0.0
0.138371 0.00936206 0.0
0.157582 -0.0203629 0.0
0.166115 -0.0303308 0.0
0.179238 -0.0303029 0.0
0.187897 -0.0261466 0.0
0.205072 0.0172862 0.0
0.210435 -9.78256e-05 0.0
0.209082 0.00886358 0.0
0.191945 -0.0213089 0.0
0.199513 -0.0114144 0.0
0.206684 -0.00697239 0.0
0.197409 0.02101 0.0
0 0 0.0
0.114463 -0.00155315 0.0
0.161213 -0.013844 0.0
0.154384 -0.0051055 0.0
0.182801 0.0272109 0.0
0.189256 0.0211159 0.0
0.177872 0.0227729 0.0
0.171094 0.0238824 0.0
0.162145 0.0216472 0.0
0.155089 0.0183677 0.0
0.147658 0.0160376 0.0
0 0 0.0
0.107332 0.0021602 0.0
0.14559 0.00688408 0.0
0.165447 -0.0192234 0.0
0.171395 -0.0235075 0.0
0.182446 -0.0229315 0.0
0.199493 0.0111927 0.0
0.201971 0.0037255 0.0
0.189114 -0.01523 0.0
0.193857 -0.00958117 0.0
0.194886 0.000183868 0.0
0.199496 -0.00460786 0.0
0.191974 0.0149911 0.0
0.181184 -0.0154418 0.0
0 0 0.0
0.119634 -0.00113301 0.0
0.167 -0.0128427 0.0
0.164276 -0.00681756 0.0
0.156393 -0.00321732 0.0
0.182918 0.0196587 0.0
0.174523 0.0183042 0.0
0.169377 0.0177876 0.0
0.161118 0.0138488 0.0
0.155538 0.0101686 0.0
0 0 0.0
0.111762 0.00151658 0.0
0.150695 0.00428442 0.0
0.170474 -0.015706 0.0
0.174767 -0.0177414 0.0
0.171128 -0.0112877 0.0
0.194633 0.00640037 0.0
0.190512 0.00319098 0.0
0.185697 -0.0118693 0.0
0.188295 -0.00895559 0.0
0.190519 -0.0035512 0.0
0.190158 0.0100943 0.0
0.185341 0.012125 0.0
0.177623 -0.0134649 0.0
0.181263 -0.0111702 0.0
0 0 0.0
0.116254 -0.000666584 0.0
0.169046 -0.00739877 0.0
0.159659 -0.0025866 0.0
0.167482 -0.00481051 0.0
0.179361 0.0134074 0.0
0.175614 0.0139128 0.0
0.171687 0.0132757 0.0
0.166702 0.0127628 0.0
0.161307 0.00757011 0.0
0 0 0.0
0.11141 0.00091732 0.0
0.156163 0.00312782 0.0
0.174947 -0.0110551 0.0
0.172631 -0.00862995 0.0
0.187784 0.00549788 0.0
0.18721 0.00102098 0.0
0.184308 -0.00784349 0.0
0.186244 -0.00514324 0.0
0.187236 -0.00199764 0.0
0.185023 0.00696264 0.0
0.180539 0.0094361 0.0
0.177931 -0.00963748 0.0
0.18099 -0.00823426 0.0
0 0 0.0
0.142071 -0.000973443 0.0
0.171357 -0.00544614 0.0
0.168127 -0.00315655 0.0
0.177854 0.0101849 0.0
0.174205 0.0100876 0.0
0.170662 0.00887352 0.0
0.166468 0.00807792 0.0
0.16324 0.00321536 0.0
0 0 0.0
0.116122 0.000651075 0.0
0.176079 -0.00781546 0.0
0.173796 -0.00660356 0.0
0.185147 0.00324394 0.0
0.184562 -0.000233109 0.0
0.182941 -0.00504121 0.0
0.183136 -0.00244813 0.0
0.182835 0.00459685 0.0
0.18087 0.00635237 0.0
0.178422 0.00739312 0.0
0.180579 -0.00603268 0.0
0.178504 -0.00700566 0.0
0 0 0.0
0.14413 -0.000579608 0.0
0.173021 -0.00388308 0.0
0.170205 -0.00236755 0.0
0.17576 0.00754403 0.0
0.173213 0.00682438 0.0
0.141543 0.000892112 0.0
0.170881 0.00530185 0.0
0.167334 0.00316721 0.0
0 0 0.0
0.176345 -0.00561535 0.0
0.174765 -0.00474786 0.0
0.182851 0.00186987 0.0
0.182364 -0.000274333 0.0
0.181223 -0.0036955 0.0
0.181355 -0.00185076 0.0
0.179652 0.00443983 0.0
0.181089 0.00318889 0.0
0.176006 0.00528388 0.0
0.177896 0.00517638 0.0
0.179716 -0.00463302 0.0
0.178084 -0.00506785 0.0
0 0 0.0
0.145672 -0.000678527 0.0
0.174201 -0.00279665 0.0
0.171749 -0.00170671 0.0
0.172596 0.0036772 0.0
0.174168 0.00479947 0.0
0.143526 0.000513258 0.0
0.169644 0.00224083 0.0
0 0 0.0
0.1766 -0.00407778 0.0
0.175473 -0.00344092 0.0
0.18114 0.00122363 0.0
0.180781 -0.000315214 0.0
0.179055 -0.0035956 0.0
0.179623 -0.00245343 0.0
0.180093 -0.00144961 0.0
0.178935 0.003257 0.0
0.179826 0.00215342 0.0
0.17615 0.00402586 0.0
0.177539 0.00358832 0.0
0.17781 -0.00370522 0.0
0 0 0.0
0.146359 -0.000543556 0.0
0.175146 -0.00195126 0.0
0.172563 -0.001217 0.0
0.173533 0.00269848 0.0
0.174872 0.00335123 0.0
0.144695 0.000558254 0.0
0.171064 0.0015868 0.0
0 0 0.0
0.176001 -0.00251207 0.0
0.176811 -0.00277701 0.0
0.17988 0.000738399 0.0
0.179652 -0.000372384 0.0
0.179008 -0.00199045 0.0
0.178339 -0.00243458 0.0
0.179182 -0.00118266 0.0
0.178941 0.00139705 0.0
0.178379 0.0023702 0.0
0.17625 0.00277703 0.0
0.177259 0.0024325 0.0
0.177632 -0.00275441 0.0
0 0 0.0
0.146464 -0.000138905 0.0
0.175714 -0.00150208 0.0
0.173368 -0.00081533 0.0
0.174338 0.00188163 0.0
0.175325 0.00230236 0.0
0 0 0.0
0.172308 0.00111787 0.0
0.145787 0.000412214 0.0
0.176964 -0.00209549 0.0
0.176388 -0.00187291 0.0
0.178059 -0.00197248 0.0
0.178996 0.000376761 0.0
0.17886 -0.00043085 0.0
0.178676 -0.00105147 0.0
0.178556 -0.00164754 0.0
0.178288 0.000832924 0.0
0.177867 0.00154833 0.0
0.176328 0.00167727 0.0
0.17705 0.00160123 0.0
0.177518 -0.0020979 0.0
0 0 0.0
0.147215 -3.58587e-05 0.0
0.173991 -0.000626771 0.0
0.176155 -0.00116282 0.0
0.17493 0.00119923 0.0
0.175636 0.00153961 0.0
0 0 0.0
0.14606 0.000216603 0.0
0.172378 0.000796247 0.0
0.177068 -0.00172915 0.0
0.176729 -0.0014523 0.0
0.177842 -0.00163592 0.0
0.177992 -0.00128001 0.0
0.178349 8.45929e-05 0.0
0.178281 -0.000504953 0.0
0.178283 -0.000967347 0.0
0.177821 0.000409386 0.0
0.177501 0.000939893 0.0
0.176348 0.00120244 0.0
0.176883 0.000981528 0.0
0.177467 -0.00166243 0.0
0 0 0.0
0.14766 -0.00027796 0.0
0.176671 -0.000911157 0.0
0.174631 -0.000581499 0.0
0.175246 0.000824815 0.0
0.175833 0.000985545 0.0
0.146018 0.000138029 0.0
0 0 0.0
0.172638 0.000471098 0.0
0.176953 -0.00117876 0.0
0.177207 -0.00132551 0.0
0.177635 -0.0013099 0.0
0.17776 -0.00115047 0.0
0.177916 -0.000917641 0.0
0.177727 -0.000244971 0.0
0.177879 -0.000591479 0.0
0.177473 7.09464e-05 0.0
0.177131 0.000339901 0.0
0.176333 0.000598813 0.0
0.176743 0.000517975 0.0
0.177443 -0.00137981 0.0
0 0 0.0
0.148342 -0.000341356 0.0
0.174649 -0.000552791 0.0
0.177164 -0.000995762 0.0
0.176847 -0.000796022 0.0
0.175482 0.000506032 0.0
0.175927 0.000648784 0.0
0.146566 6.17473e-05 0.0
0 0 0.0
0.173206 0.000285758 0.0
0.177452 -0.00123028 0.0
0.177303 -0.00118483 0.0
0.177622 -0.00110126 0.0
0.177553 -0.00119549 0.0
0.177567 -0.000941837 0.0
0.177586 -0.000695471 0.0
0.177494 -0.000398751 0.0
0.177212 -0.000208063 0.0
0.176966 6.13035e-05 0.0
0.176309 0.000327643 0.0
0.175991 0.000260141 0.0
0.176617 0.000152395 0.0
0 0 0.0
0.175291 -0.000423846 0.0
0.148653 -0.000277118 0.0
0.177329 -0.000907717 0.0
0.177081 -0.000685785 0.0
0.175584 0.000250524 0.0
0 0 0.0
0.146814 3.0363e-05 0.0
0.173379 0.000132047 0.0
0.177485 -0.0011478 0.0
0.177444 -0.00105433 0.0
0.177529 -0.00109878 0.0
0.177518 -0.00116015 0.0
0.177452 -0.000997946 0.0
0.177378 -0.000817712 0.0
0.177311 -0.000546606 0.0
0.175988 5.68103e-05 0.0
0.176517 -0.000100399 0.0
0.17701 -0.000450318 0.0
0.176819 -0.000178294 0.0
0.176252 2.91365e-05 0.0
0 0 0.0
0.147756 6.28136e-05 0.0
0.174926 -0.000318497 0.0
0.177534 -0.000853259 0.0
0.177437 -0.000654641 0.0
0.173769 2.74973e-05 0.0
0.175587 2.06551e-05 0.0
0 0 0.0
0.14744 7.16924e-05 0.0
0.17754 -0.00112664 0.0
0.177578 -0.00103588 0.0
0.177459 -0.00114546 0.0
0.177522 -0.00119109 0.0
0.177362 -0.00107799 0.0
0.177227 -0.000963265 0.0
0.17705 -0.00081689 0.0
0.175938 -0.000157502 0.0
0.176846 -0.00067427 0.0
0.176416 -0.000319837 0.0
0.176618 -0.000521278 0.0
0.176147 -0.000280484 0.0
0 0 0.0
0.17556 -0.000376137 0.0
0.149098 -5.74641e-05 0.0
0.177761 -0.000870864 0.0
0.17768 -0.000664123 0.0
0.173317 -0.000119548 0.0
0.175611 -0.000133513 0.0
0 0 0.0
0.146301 9.12579e-06 0.0
0.177726 -0.00107545 0.0
0.177625 -0.00116886 0.0
0.177429 -0.00124982 0.0
0.177288 -0.00121156 0.0
0.177554 -0.00128073 0.0
0.177116 -0.00112989 0.0
0.176923 -0.00101975 0.0
0.176705 -0.000892809 0.0
0.177155 -0.00131066 0.0
0.175872 -0.00035542 0.0
0.176478 -0.000753727 0.0
0.176254 -0.000619377 0.0
0.176068 -0.000438195 0.0
0 0 0.0
0.176254 -0.000421825 0.0
0.149232 -0.000361764 0.0
0.177926 -0.00093568 0.0
0.177838 -0.000711354 0.0
0.173398 -0.000261732 0.0
0.175569 -0.000237225 0.0
0 0 0.0
0.146641 -0.000297435 0.0
0.177892 -0.00116148 0.0
0.17773 -0.00127044 0.0
0.177422 -0.00139643 0.0
0.177616 -0.00142835 0.0
0.177224 -0.00148462 0.0
0.176944 -0.00123405 0.0
0.176717 -0.00113148 0.0
0.176485 -0.00100758 0.0
0.176998 -0.0014454 0.0
0.175741 -0.000506786 0.0
0.176251 -0.000873701 0.0
0.176075 -0.000782758 0.0
0.175907 -0.000695336 0.0
0 0 0.0
0.176031 -0.000447064 0.0
0.149321 -0.000103523 0.0
0.178172 -0.00102789 0.0
0.178168 -0.000790148 0.0
0.175416 -0.000423229 0.0
0.173289 -0.000202 0.0
0 0 0.0
0.146735 -2.60247e-05 0.0
0.178084 -0.00131044 0.0
0.177862 -0.00142504 0.0
0.177202 -0.00172281 0.0
0.177698 -0.00162659 0.0
0.177452 -0.00160052 0.0
0.176753 -0.00137148 0.0
0.176499 -0.00126617 0.0
0.176247 -0.00113919 0.0
0.176929 -0.0017009 0.0
0.17559 -0.000664129 0.0
0.176006 -0.000991853 0.0
0.175739 -0.000894991 0.0
0 0 0.0
0.148645 -0.000117147 0.0
0.176185 -0.000503554 0.0
0.178516 -0.000896191 0.0
0.178305 -0.00150561 0.0
0.178426 -0.00117864 0.0
0.175205 -0.000523701 0.0
0.173059 -0.000266982 0.0
0.146463 8.3782e-05 0.0
0 0 0.0
0.177785 -0.00183316 0.0
0.178021 -0.0016384 0.0
0.177199 -0.0019459 0.0
0.177491 -0.00186105 0.0
0.176091 -0.00138937 0.0
0.176647 -0.00163311 0.0
0.176363 -0.00152744 0.0
0.176875 -0.00200104 0.0
0.175552 -0.00109402 0.0
0.17536 -0.00087574 0.0
0.175778 -0.00129464 0.0
0 0 0.0
0.149844 -0.000123001 0.0
0.177016 -0.000650408 0.0
0.178826 -0.00106668 0.0
0.178488 -0.00169016 0.0
0.178793 -0.00144072 0.0
0.175101 -0.000653454 0.0
0.172393 -0.000419333 0.0
0.145739 -0.0002676 0.0
0 0 0.0
0.174854 -0.000771538 0.0
0.177883 -0.0020698 0.0
0.178263 -0.00201582 0.0
0.177573 -0.00232487 0.0
0.177199 -0.00219868 0.0
0.175852 -0.00176231 0.0
0.176221 -0.00181592 0.0
0.176544 -0.00193649 0.0
0.176809 -0.00235307 0.0
0.175324 -0.00130917 0.0
0.175103 -0.00105066 0.0
0.175565 -0.00155413 0.0
0 0 0.0
0.150256 -0.000414704 0.0
0.177519 -0.000851139 0.0
0.179193 -0.00125596 0.0
0.178776 -0.0019816 0.0
0.179151 -0.00172629 0.0
0.145431 -0.00028749 0.0
0.172715 -0.000580659 0.0
0 0 0.0
0.17456 -0.000865045 0.0
0.178031 -0.00243957 0.0
0.178494 -0.00238133 0.0
0.17765 -0.00273621 0.0
0.177196 -0.0025896 0.0
0.175671 -0.00202643 0.0
0.176065 -0.00214072 0.0
0.176745 -0.00276786 0.0
0.176375 -0.00245497 0.0
0.175119 -0.00148033 0.0
0.17482 -0.00123982 0.0
0.175319 -0.00183444 0.0
0 0 0.0
0.151179 -0.000523476 0.0
0.177801 -0.00105296 0.0
0.179651 -0.00153242 0.0
0.179186 -0.00244061 0.0
0.178754 -0.00283293 0.0
0.179565 -0.00205409 0.0
0.14544 -0.000312216 0.0
0.172393 -0.000607508 0.0
0 0 0.0
0.174208 -0.0010237 0.0
0.178252 -0.00304355 0.0
0.177717 -0.00312935 0.0
0.177197 -0.00305317 0.0
0.176678 -0.00312941 0.0
0.175477 -0.0023095 0.0
0.175866 -0.00252579 0.0
0.176228 -0.00288244 0.0
0.17447 -0.0014411 0.0
0.174809 -0.00173634 0.0
0.175025 -0.00215005 0.0
0 0 0.0
0.151522 -0.000575858 0.0
0.178407 -0.00117422 0.0
0.180287 -0.00181157 0.0
0.179497 -0.00279717 0.0
0.17905 -0.00335945 0.0
0.180061 -0.00245494 0.0
0.145135 -0.000141722 0.0
0.172087 -0.000611581 0.0
0 0 0.0
0.174133 -0.00162279 0.0
0.171406 -0.000668966 0.0
0.173645 -0.00120157 0.0
0.178448 -0.00364364 0.0
0.177778 -0.00355959 0.0
0.177177 -0.00387547 0.0
0.176611 -0.00352728 0.0
0.176103 -0.00326466 0.0
0.175203 -0.00269148 0.0
0.175559 -0.00314856 0.0
0.174341 -0.00209612 0.0
0.174738 -0.00245876 0.0
0.178635 -0.00419561 0.0
0 0 0.0
0.152377 -0.000364437 0.0
0.181017 -0.00218865 0.0
0.179164 -0.00136116 0.0
0.179403 -0.0040344 0.0
0.180065 -0.00350537 0.0
0.180658 -0.00295749 0.0
0.145107 -0.000132225 0.0
0 0 0.0
0.174007 -0.00234997 0.0
0.173677 -0.0018944 0.0
0.173239 -0.00141702 0.0
0.143863 -0.000219481 0.0
0.170954 -0.000885753 0.0
0.177877 -0.00422414 0.0
0.177151 -0.0044062 0.0
0.176478 -0.00414332 0.0
0.176365 -0.00468328 0.0
0.175941 -0.0036868 0.0
0.174861 -0.00314189 0.0
0.175247 -0.00367681 0.0
0.174403 -0.00278238 0.0
0.178797 -0.00483731 0.0
0.152779 -0.000558283 0.0
0 0 0.0
0.181717 -0.00258681 0.0
0.18018 -0.0016602 0.0
0.179786 -0.00485047 0.0
0.180484 -0.00405601 0.0
0.181369 -0.00360849 0.0
0 0 0.0
0.173515 -0.00269983 0.0
0.173012 -0.0022416 0.0
0.172708 -0.0016053 0.0
0.143766 -0.000599353 0.0
0.170348 -0.00103814 0.0
0.177973 -0.00537333 0.0
0.177117 -0.00499483 0.0
0.176209 -0.0052712 0.0
0.17559 -0.00459687 0.0
0.174475 -0.00363707 0.0
0.174912 -0.00427536 0.0
0.173804 -0.00336474 0.0
0.179053 -0.00578952 0.0
0 0 0.0
0.15452 -0.000726384 0.0
0.18269 -0.0032208 0.0
0.18168 -0.0021198 0.0
0.182179 -0.00442822 0.0
0.180215 -0.0058608 0.0
0.181258 -0.0051481 0.0
0 0 0.0
0 0 0.0
0.172928 -0.00310754 0.0
0.172395 -0.00255502 0.0
0.172089 -0.00183975 0.0
0.169761 -0.0011564 0.0
0.143079 -0.000389032 0.0
0.178019 -0.00638193 0.0
0.177012 -0.00589573 0.0
0.174572 -0.00480946 0.0
0.175958 -0.00616359 0.0
0.175236 -0.00536691 0.0
0.173996 -0.00420774 0.0
0.173233 -0.00386337 0.0
0.178017 -0.00732865 0.0
0.17924 -0.00694121 0.0
0.155959 -0.0012217 0.0
0.182546 -0.00272743 0.0
0.183764 -0.00403141 0.0
0.182947 -0.00523111 0.0
0.180678 -0.00707205 0.0
0.181784 -0.00604303 0.0
0 0 0.0
0 0 0.0
0.171803 -0.00281901 0.0
0.172074 -0.0036508 0.0
0.169353 -0.00123773 0.0
0.171143 -0.00208522 0.0
0.142726 -0.000402215 0.0
0.176784 -0.00742316 0.0
0.175596 -0.00720378 0.0
0.172585 -0.00441629 0.0
0.174183 -0.00538735 0.0
0.174923 -0.00603896 0.0
0.173223 -0.00508009 0.0
0.177983 -0.00836213 0.0
0.179534 -0.00887909 0.0
0.181137 -0.00858524 0.0
0.157215 -0.00155238 0.0
0.183897 -0.00339892 0.0
0.185493 -0.00531078 0.0
0.184066 -0.00642689 0.0
0.182742 -0.00782576 0.0
0 0 0.0
0 0 0.0
0.170816 -0.00326676 0.0
0.171253 -0.00414755 0.0
0.167967 -0.00136873 0.0
0.170324 -0.00235553 0.0
0.141477 -0.000522533 0.0
0.17454 -0.00677275 0.0
0.175133 -0.00835728 0.0
0.176447 -0.00875166 0.0
0.171818 -0.00501668 0.0
0.1736 -0.00619989 0.0
0.172508 -0.00582953 0.0
0.170329 -0.00468227 0.0
0.177716 -0.0105717 0.0
0 0 0.0
0.179544 -0.0107173 0.0
0.183575 -0.0096579 0.0
0.181546 -0.0103962 0.0
0.159913 -0.00167805 0.0
0.186969 -0.00650906 0.0
0.186485 -0.00448086 0.0
0.185558 -0.00848807 0.0
0 0 0.0
0 0 0.0
0 0 0.0
0 0 0.0
0 0 0.0
0.140388 -0.000558686 0.0
0.169422 -0.00263216 0.0
0.16983 -0.00367343 0.0
0.166874 -0.00155125 0.0
0.173929 -0.00779968 0.0
0.174497 -0.00967423 0.0
0.176019 -0.0102498 0.0
0.171824 -0.00646394 0.0
0.170917 -0.00567166 0.0
0.172561 -0.00748131 0.0
0.170056 -0.00626241 0.0
0.169528 -0.00509023 0.0
0.177269 -0.0124946 0.0
0.179459 -0.0127782 0.0
0 0 0.0
0.000196604 -0.000175505 0.0
0 0 0.0
0.000599811 -0.00752043 0.0
0.181882 -0.012681 0.0
0.184276 -0.0113497 0.0
0.163145 -0.00236256 0.0
0.18904 -0.00830676 0.0
0.189357 -0.00603125 0.0
0.187125 -0.0108768 0.0
0 0 0.0
0 0 0.0
0 0 0.0
0.00050669 -0.00555674 0.0
0.000478854 -0.00123961 0.0
0.00135295 -0.00148793 0.0
0 0 0.0
0.139802 -0.000631674 0.0
0.168448 -0.00287929 0.0
0.168752 -0.00409402 0.0
0.165946 -0.00176783 0.0
0.173177 -0.00895483 0.0
0.173674 -0.0111343 0.0
0.175359 -0.0119299 0.0
0.171031 -0.00715448 0.0
0.17183 -0.0083088 0.0
0.169078 -0.00686631 0.0
0.168051 -0.00580912 0.0
0.176608 -0.0146361 0.0
0.178493 -0.0149558 0.0
0.18055 -0.0149888 0.0
0 0 0.0
0.00146932 -0.000640112 0.0
0 0 0.0
0 0 0.0
0.00214494 -0.0157041 0.0
0.00242201 -0.0128653 0.0
0.18269 -0.0149063 0.0
0.18505 -0.0142047 0.0
0.192853 -0.0080606 0.0
0.167239 -0.00338029 0.0
0.19151 -0.010926 0.0
0.188626 -0.0140137 0.0
0 0 0.0
0.00181311 -0.00579247 0.0
0.00215023 -0.00923356 0.0
0.00235076 -0.00403634 0.0
0.00408655 -0.00295292 0.0
0 0 0.0
0.138694 -0.000689824 0.0
0.167211 -0.00318261 0.0
0.167538 -0.00452174 0.0
0.164662 -0.00195368 0.0
0.172224 -0.0102039 0.0
0.172618 -0.0127063 0.0
0.174439 -0.0137938 0.0
0.169527 -0.0083649 0.0
0.17098 -0.00915747 0.0
0.167763 -0.00761143 0.0
0.166179 -0.00496445 0.0
0.166685 -0.00640575 0.0
0.175788 -0.0165266 0.0
0.178625 -0.0171252 0.0
0.181825 -0.0177489 0.0
0 0 0.0
0.00440482 -0.00109937 0.0
0 0 0.0
0 0 0.0
0 0 0.0
0 0 0.0
0.00537033 -0.0140587 0.0
0.000444541 -0.0105134 0.0
0.00208238 -0.0181805 0.0
0.00517898 -0.0232594 0.0
0.00477015 -0.01861 0.0
0 0 0.0
-0.000143224 -0.013049 0.0
0.185549 -0.0188631 0.0
0.189729 -0.0171845 0.0
0 0 0.0
0.173439 -0.00528998 0.0
0.196742 -0.0108829 0.0
0.194714 -0.0157277 0.0
0 0 0.0
0 0 0.0
0.00471736 -0.00961868 0.0
0.00589224 -0.00657214 0.0
0.0081272 -0.00392114 0.0
0 0 0.0
0.137707 -0.000751814 0.0
0.165707 -0.0035472 0.0
0.163715 -0.00213053 0.0
0.16498 -0.00530206 0.0
0.171061 -0.0115377 0.0
0.171625 -0.0139515 0.0
0.173207 -0.0158357 0.0
0.168406 -0.00912565 0.0
0.169737 -0.0102638 0.0
0.166304 -0.00835328 0.0
0.165552 -0.00683856 0.0
0.179591 -0.0195971 0.0
0.174689 -0.0185436 0.0
0.177088 -0.0212851 0.0
0.180839 -0.0226145 0.0
0.185391 -0.0238263 0.0
0 0 0.0
0.00695926 -0.00118201 0.0
6.70057e-05 -0.0137601 0.0
0.00153791 -0.0267094 0.0
0.000417585 -0.0123181 0.0
0.00815619 -0.0179983 0.0
0.0118988 -0.0153456 0.0
0.00229335 -0.0231849 0.0
0.00550032 -0.0281375 0.0
0.0089015 -0.0262207 0.0
-0.000651236 -0.0131249 0.0
3.32979e-05 -0.0311208 0.0
0.191181 -0.023228 0.0
-0.00126681 -0.0112613 0.0