# vtk DataFile Version 3.0
Mesh NS-CD Problem
ASCII
DATASET UNSTRUCTURED_GRID
POINTS 10839 float
-2 0.3 0.0
-2 0.4 0.0
-2 0.35 0.0
-2 0.45 0.0
-2 0.5 0.0
-2 0.55 0.0
-2 0 0.0
-2 0.05 0.0
-2 0.85 0.0
-2 0.9 0.0
-2 0.1 0.0
-2 0.15 0.0
-2 0.25 0.0
-2 0.2 0.0
-1.96653 0.266667 0.0
-1.96524 0.415385 0.0
-1.96485 0.315 0.0
-1.96348 0.363636 0.0
-1.96414 0.464286 0.0
-2 0.6 0.0
-1.96538 0.584615 0.0
-1.96538 0.538462 0.0
-1.94979 0 0.0
-1.96653 0.0666666 0.0
-1.93306 0.0333333 0.0
-2 0.8 0.0
-2 0.75 0.0
-2 0.7 0.0
-2 0.65 0.0
-1.96249 0.7375 0.0
-1.96666 0.833333 0.0
-2 1 0.0
-2 0.95 0.0
-1.96249 0.8875 0.0
-1.96666 0.933333 0.0
-1.96234 0.1125 0.0
-1.96653 0.166667 0.0
-1.93724 0.225 0.0
-1.92971 0.28 0.0
-1.93048 0.380769 0.0
-1.93048 0.423077 0.0
-1.89958 0.3375 0.0
-1.9292 0.484203 0.0
-1.92117 0.530907 0.0
-1.96363 0.636364 0.0
-1.93076 0.576923 0.0
-1.89958 0 0.0
-1.88703 0.0375 0.0
-1.90963 0.08 0.0
-1.86611 0.0666666 0.0
-1.93749 0.775 0.0
-1.93635 0.672727 0.0
-1.92999 0.72 0.0
-1.93332 0.866667 0.0
-1.92856 0.821429 0.0
-1.94999 1 0.0
-1.92499 0.9625 0.0
-1.92499 0.925 0.0
-1.89998 0.9 0.0
-1.89958 0.125 0.0
-1.92827 0.178571 0.0
-1.89958 0.233333 0.0
-1.89045 0.290909 0.0
-1.86096 0.311538 0.0
-1.89241 0.392857 0.0
-1.89334 0.448489 0.0
-1.85655 0.357143 0.0
-1.89614 0.653846 0.0
-1.89427 0.504121 0.0
-1.8952 0.559753 0.0
-1.89614 0.615385 0.0
-1.84937 0 0.0
-1.83264 0.0333333 0.0
-1.85655 0.107143 0.0
-1.81172 0.075 0.0
-1.89998 0.766667 0.0
-1.89089 0.709091 0.0
-1.87498 0.85 0.0
-1.85998 0.79 0.0
-1.88748 0.8125 0.0
-1.89998 1 0.0
-1.88748 0.9625 0.0
-1.86664 0.933333 0.0
-1.85712 0.892857 0.0
-1.87448 0.15 0.0
-1.86611 0.194444 0.0
-1.83264 0.133333 0.0
-1.83264 0.2625 0.0
-1.82068 0.321429 0.0
-1.85664 0.404762 0.0
-1.85674 0.452381 0.0
-1.85683 0.5 0.0
-1.81184 0.375 0.0
-1.85712 0.642857 0.0
-1.85693 0.547619 0.0
-1.85702 0.595238 0.0
-1.79917 0 0.0
-1.78482 0.0357143 0.0
-1.79917 0.116667 0.0
-1.76569 0.0666666 0.0
-1.85452 0.745455 0.0
-1.82689 0.692308 0.0
-1.81815 0.781818 0.0
-1.82497 0.825 0.0
-1.84997 1 0.0
-1.8333 0.958333 0.0
-1.81247 0.8875 0.0
-1.81247 0.925 0.0
-1.81742 0.218182 0.0
-1.82427 0.175 0.0
-1.77634 0.145455 0.0
-1.79144 0.242308 0.0
-1.78482 0.285714 0.0
-1.77469 0.332653 0.0
-1.81215 0.529762 0.0
-1.81194 0.422619 0.0
-1.81203 0.470238 0.0
-1.76714 0.392857 0.0
-1.81234 0.625 0.0
-1.79732 0.571429 0.0
-1.74896 0 0.0
-1.73222 0.0333333 0.0
-1.75398 0.105 0.0
-1.71883 0.07 0.0
-1.79227 0.730769 0.0
-1.78007 0.679121 0.0
-1.75765 0.769231 0.0
-1.78178 0.818182 0.0
-1.78996 0.86 0.0
-1.79996 1 0.0
-1.78568 0.964286 0.0
-1.76663 0.922222 0.0
-1.76569 0.1875 0.0
-1.73222 0.15 0.0
-1.74896 0.25 0.0
-1.73714 0.304762 0.0
-1.76743 0.537202 0.0
-1.72869 0.343878 0.0
-1.76732 0.485119 0.0
-1.76723 0.440476 0.0
-1.72243 0.410714 0.0
-1.76757 0.607143 0.0
-1.69875 0 0.0
-1.68369 0.035 0.0
-1.69875 0.1125 0.0
-1.66528 0.075 0.0
-1.74341 0.708974 0.0
-1.73324 0.665934 0.0
-1.70441 0.74478 0.0
-1.71423 0.785714 0.0
-1.72303 0.826923 0.0
-1.74541 0.854545 0.0
-1.74541 0.890909 0.0
-1.74996 1 0.0
-1.73745 0.9625 0.0
-1.71359 0.927273 0.0
-1.68716 0.153846 0.0
-1.7131 0.214286 0.0
-1.70725 0.275 0.0
-1.69712 0.321939 0.0
-1.72279 0.589286 0.0
-1.72261 0.5 0.0
-1.7227 0.544643 0.0
-1.6827 0.355102 0.0
-1.67773 0.428571 0.0
-1.70763 0.464286 0.0
-1.70369 0.62449 0.0
-1.64854 0 0.0
-1.63181 0.0375 0.0
-1.64137 0.142857 0.0
-1.61764 0.0769231 0.0
-1.69458 0.703846 0.0
-1.67471 0.657437 0.0
-1.66143 0.727637 0.0
-1.67125 0.768571 0.0
-1.67851 0.821429 0.0
-1.68841 0.861538 0.0
-1.70904 0.890909 0.0
-1.69995 1 0.0
-1.68176 0.963636 0.0
-1.67267 0.927273 0.0
-1.65427 0.187143 0.0
-1.66718 0.231429 0.0
-1.66554 0.3 0.0
-1.67802 0.571429 0.0
-1.67792 0.523809 0.0
-1.6367 0.366327 0.0
-1.63682 0.423469 0.0
-1.62568 0.502976 0.0
-1.6629 0.470238 0.0
-1.65254 0.618367 0.0
-1.6059 0.307143 0.0
-1.59833 0 0.0
-1.58288 0.0384615 0.0
-1.60563 0.169643 0.0
-1.58179 0.112271 0.0
-1.56964 0.0714286 0.0
-1.64574 0.690385 0.0
-1.62827 0.751429 0.0
-1.63371 0.791071 0.0
-1.64279 0.857143 0.0
-1.65378 0.896154 0.0
-1.64994 1 0.0
-1.6363 0.963636 0.0
-1.61916 0.930769 0.0
-1.61345 0.209107 0.0
-1.62126 0.248571 0.0
-1.56989 0.196429 0.0
-1.63324 0.553571 0.0
-1.58846 0.535714 0.0
-1.59408 0.361905 0.0
-1.59161 0.402211 0.0
-1.58832 0.464286 0.0
-1.61504 0.598581 0.0
-1.59683 0.64359 0.0
-1.57899 0.274107 0.0
-1.56176 0.322381 0.0
-1.54812 0 0.0
-1.53378 0.0357143 0.0
-1.54593 0.147619 0.0
-1.53385 0.0732143 0.0
-1.53393 0.110714 0.0
-1.58522 0.704286 0.0
-1.58709 0.745 0.0
-1.58896 0.785714 0.0
-1.60695 0.830357 0.0
-1.60707 0.892857 0.0
-1.59993 1 0.0
-1.58454 0.965385 0.0
-1.57135 0.928571 0.0
-1.55209 0.241071 0.0
-1.5291 0.198214 0.0
-1.56936 0.570918 0.0
-1.54369 0.517857 0.0
-1.5464 0.380952 0.0
-1.54564 0.427721 0.0
-1.54488 0.47449 0.0
-1.55026 0.606122 0.0
-1.54222 0.677143 0.0
-1.52943 0.282857 0.0
-1.52143 0.33619 0.0
-1.49792 0 0.0
-1.49802 0.05 0.0
-1.49822 0.15 0.0
-1.49312 0.1 0.0
-1.5423 0.717143 0.0
-1.54419 0.767857 0.0
-1.54727 0.819048 0.0
-1.57122 0.861905 0.0
-1.53553 0.914286 0.0
-1.54992 1 0.0
-1.53563 0.964286 0.0
-1.49842 0.25 0.0
-1.48831 0.2 0.0
-1.5214 0.558929 0.0
-1.49891 0.5 0.0
-1.49871 0.4 0.0
-1.47631 0.45 0.0
-1.49911 0.6 0.0
-1.49921 0.65 0.0
-1.49931 0.7 0.0
-1.48111 0.35 0.0
-1.48351 0.3 0.0
-1.44771 0 0.0
-1.44782 0.05 0.0
-1.44804 0.15 0.0
-1.44793 0.1 0.0
-1.49941 0.75 0.0
-1.49951 0.8 0.0
-1.49981 0.95 0.0
-1.49961 0.85 0.0
-1.49971 0.9 0.0
-1.49991 1 0.0
-1.44826 0.25 0.0
-1.43815 0.2 0.0
-1.47151 0.55 0.0
-1.44881 0.5 0.0
-1.44859 0.4 0.0
-1.42619 0.45 0.0
-1.44913 0.65 0.0
-1.44902 0.6 0.0
-1.44935 0.75 0.0
-1.44924 0.7 0.0
-1.43972 0.35 0.0
-1.43336 0.3 0.0
-1.3975 0 0.0
-1.39762 0.05 0.0
-1.39786 0.15 0.0
-1.39274 0.1 0.0
-1.44957 0.85 0.0
-1.44946 0.8 0.0
-1.4523 0.95 0.0
-1.44968 0.9 0.0
-1.4499 1 0.0
-1.3981 0.25 0.0
-1.38798 0.2 0.0
-1.42141 0.55 0.0
-1.3987 0.5 0.0
-1.39834 0.35 0.0
-1.37845 0.4 0.0
-1.37607 0.45 0.0
-1.40784 0.65 0.0
-1.39894 0.6 0.0
-1.41185 0.75 0.0
-1.39918 0.7 0.0
-1.38322 0.3 0.0
-1.34729 0 0.0
-1.34492 0.05 0.0
-1.34018 0.15 0.0
-1.34255 0.1 0.0
-1.40707 0.85 0.0
-1.39941 0.8 0.0
-1.39977 0.95 0.0
-1.39965 0.9 0.0
-1.39989 1 0.0
-1.33781 0.2 0.0
-1.33544 0.25 0.0
-1.37131 0.55 0.0
-1.34859 0.5 0.0
-1.33833 0.4 0.0
-1.3307 0.35 0.0
-1.32595 0.45 0.0
-1.34885 0.6 0.0
-1.36655 0.65 0.0
-1.36179 0.75 0.0
-1.34911 0.7 0.0
-1.33307 0.3 0.0
-1.29708 0 0.0
-1.29722 0.05 0.0
-1.2975 0.15 0.0
-1.29236 0.1 0.0
-1.35703 0.85 0.0
-1.34937 0.8 0.0
-1.34988 1 0.0
-1.34962 0.9 0.0
-1.35226 0.95 0.0
-1.28528 0.25 0.0
-1.28764 0.2 0.0
-1.28931 0.35 0.0
-1.32121 0.55 0.0
-1.29848 0.5 0.0
-1.28709 0.45 0.0
-1.2982 0.4 0.0
-1.29876 0.6 0.0
-1.31647 0.65 0.0
-1.29918 0.75 0.0
-1.29904 0.7 0.0
-1.28292 0.3 0.0
-1.24687 0 0.0
-1.24702 0.05 0.0
-1.24717 0.1 0.0
-1.24732 0.15 0.0
-1.29946 0.85 0.0
-1.29932 0.8 0.0
-1.29987 1 0.0
-1.29974 0.95 0.0
-1.30462 0.9 0.0
-1.24762 0.25 0.0
-1.23747 0.2 0.0
-1.24792 0.35 0.0
-1.22807 0.4 0.0
-1.27111 0.55 0.0
-1.24837 0.5 0.0
-1.24822 0.45 0.0
-1.24867 0.6 0.0
-1.26639 0.65 0.0
-1.26167 0.75 0.0
-1.24897 0.7 0.0
-1.23277 0.3 0.0
-1.19667 0 0.0
-1.19683 0.05 0.0
-1.18964 0.15 0.0
-1.19198 0.1 0.0
-1.25695 0.85 0.0
-1.24927 0.8 0.0
-1.25223 0.95 0.0
-1.24987 1 0.0
-1.24957 0.9 0.0
-1.1873 0.2 0.0
-1.18496 0.25 0.0
-1.18028 0.35 0.0
-1.17794 0.4 0.0
-1.1981 0.45 0.0
-1.19842 0.55 0.0
-1.19826 0.5 0.0
-1.19858 0.6 0.0
-1.19874 0.65 0.0
-1.19906 0.75 0.0
-1.1989 0.7 0.0
-1.18262 0.3 0.0
-1.14646 0 0.0
-1.14663 0.05 0.0
-1.1418 0.1 0.0
-1.13713 0.2 0.0
-1.14697 0.15 0.0
-1.20691 0.85 0.0
-1.20926 0.8 0.0
-1.20221 0.95 0.0
-1.19986 1 0.0
-1.20456 0.9 0.0
-1.13997 0.3 0.0
-1.14731 0.25 0.0
-1.13781 0.4 0.0
-1.13014 0.35 0.0
-1.12548 0.45 0.0
-1.14815 0.5 0.0
-1.15962 0.55 0.0
-1.14849 0.6 0.0
-1.15745 0.65 0.0
-1.16155 0.75 0.0
-1.14917 0.8 0.0
-1.14883 0.7 0.0
-1.09625 0 0.0
-1.09661 0.1 0.0
-1.09393 0.05 0.0
-1.09697 0.2 0.0
-1.08929 0.15 0.0
-1.15687 0.85 0.0
-1.14985 1 0.0
-1.15219 0.95 0.0
-1.14951 0.9 0.0
-1.09733 0.3 0.0
-1.08465 0.25 0.0
-1.09769 0.4 0.0
-1.08 0.35 0.0
-1.08661 0.45 0.0
-1.09804 0.5 0.0
-1.12082 0.55 0.0
-1.10916 0.8 0.0
-1.10629 0.7 0.0
-1.0984 0.6 0.0
-1.11616 0.65 0.0
-1.11149 0.75 0.0
-1.04604 0 0.0
-1.04623 0.05 0.0
-1.04642 0.1 0.0
-1.0468 0.2 0.0
-1.03911 0.15 0.0
-1.09948 0.9 0.0
-1.0993 0.85 0.0
-1.09984 1 0.0
-1.09966 0.95 0.0
-1.04718 0.3 0.0
-1.03449 0.25 0.0
-1.04756 0.4 0.0
-1.02986 0.35 0.0
-1.04775 0.45 0.0
-1.04794 0.5 0.0
-1.04813 0.55 0.0
-1.05911 0.8 0.0
-1.04831 0.6 0.0
-1.06376 0.7 0.0
-1.0485 0.65 0.0
-1.04888 0.75 0.0
-0.995833 0 0.0
-0.991231 0.1 0.0
-0.996033 0.05 0.0
-0.986629 0.2 0.0
-0.98893 0.15 0.0
-1.05447 0.9 0.0
-1.04926 0.85 0.0
-1.04983 1 0.0
-1.04964 0.95 0.0
-0.984328 0.25 0.0
-0.99703 0.3 0.0
-0.997429 0.4 0.0
-0.997628 0.45 0.0
-0.979726 0.35 0.0
-0.997827 0.5 0.0
-0.998027 0.55 0.0
-0.998226 0.6 0.0
-0.961416 0.475 0.0
-1.00907 0.8 0.0
-0.998426 0.65 0.0
-0.998625 0.7 0.0
-1.01138 0.75 0.0
-0.945625 0 0.0
-0.946044 0.1 0.0
-0.943334 0.05 0.0
-0.946463 0.2 0.0
-0.938752 0.15 0.0
-1.00444 0.9 0.0
-1.00675 0.85 0.0
-0.999821 1 0.0
-1.00213 0.95 0.0
-0.93417 0.25 0.0
-0.946881 0.3 0.0
-0.9473 0.4 0.0
-0.929588 0.35 0.0
-0.925005 0.45 0.0
-0.960371 0.525 0.0
-0.959325 0.575 0.0
-0.958279 0.625 0.0
-0.922714 0.5 0.0
-0.959017 0.8 0.0
-0.957233 0.675 0.0
-0.952999 0.7125 0.0
-0.948766 0.75 0.0
-0.895417 0 0.0
-0.895855 0.1 0.0
-0.893136 0.05 0.0
-0.896294 0.2 0.0
-0.888573 0.15 0.0
-0.949184 0.85 0.0
-0.954415 0.9 0.0
-0.949812 1 0.0
-0.949603 0.95 0.0
-0.884011 0.25 0.0
-0.896733 0.3 0.0
-0.874887 0.45 0.0
-0.879449 0.35 0.0
-0.897171 0.4 0.0
-0.920423 0.55 0.0
-0.918132 0.6 0.0
-0.915841 0.65 0.0
-0.872606 0.5 0.0
-0.908968 0.8 0.0
-0.91355 0.7 0.0
-0.898707 0.75 0.0
-0.845208 0 0.0
-0.845438 0.05 0.0
-0.845667 0.1 0.0
-0.845896 0.15 0.0
-0.833853 0.25 0.0
-0.846126 0.2 0.0
-0.899146 0.85 0.0
-0.904386 0.9 0.0
-0.899584 0.95 0.0
-0.899804 1 0.0
-0.838062 0.35 0.0
[...]
POINT_DATA 10839
VECTORS Velocity float
0.21 0 0.0
0.24 0 0.0
0.2275 0 0.0
0.2475 0 0.0
0.25 0 0.0
0.2475 0 0.0
0 0 0.0
0.0475 0 0.0
0.1275 0 0.0
0.09 0 0.0
0.09 0 0.0
0.1275 0 0.0
0.1875 0 0.0
0.16 0 0.0
0.195557 -2.26601e-05 0.0
0.242841 -3.09589e-05 0.0
0.215776 -2.6991e-05 0.0
0.231406 -3.0442e-05 0.0
0.248725 -3.29684e-05 0.0
0.24 0 0.0
0.24284 -3.08876e-05 0.0
0.24852 -3.17482e-05 0.0
0 0 0.0
0.0622238 -3.92636e-06 0.0
0.0322267 -2.59348e-06 0.0
0.16 0 0.0
0.1875 0 0.0
0.21 0 0.0
0.2275 0 0.0
0.193592 -2.54331e-05 0.0
0.138887 -1.40904e-05 0.0
0 0 0.0
0.0475 0 0.0
0.0998416 -9.77069e-06 0.0
0.0622207 -3.96994e-06 0.0
0.099846 -1.02119e-05 0.0
0.138891 -1.42189e-05 0.0
0.17438 -3.5707e-05 0.0
0.201605 -4.8968e-05 0.0
0.235787 -5.98554e-05 0.0
0.244085 -6.2647e-05 0.0
0.223601 -8.02613e-05 0.0
0.249751 -6.54638e-05 0.0
0.249044 -7.2958e-05 0.0
0.231404 -3.09364e-05 0.0
0.244081 -6.18995e-05 0.0
0 0 0.0
0.0361072 -5.02413e-06 0.0
0.0736119 -1.40672e-05 0.0
0.0622475 -1.54199e-05 0.0
0.174371 -3.51737e-05 0.0
0.220162 -4.89649e-05 0.0
0.201595 -4.90349e-05 0.0
0.115549 -2.104e-05 0.0
0.146676 -3.26531e-05 0.0
0 0 0.0
0.0360878 -3.38106e-06 0.0
0.0693666 -1.09886e-05 0.0
0.0899844 -2.18473e-05 0.0
0.10939 -2.95913e-05 0.0
0.146691 -3.20284e-05 0.0
0.178901 -5.99438e-05 0.0
0.206293 -7.84784e-05 0.0
0.2145 -0.000105874 0.0
0.238526 -9.39177e-05 0.0
0.24735 -9.78235e-05 0.0
0.229606 -0.000119624 0.0
0.226324 -8.43375e-05 0.0
0.249983 -9.83116e-05 0.0
0.246427 -9.5631e-05 0.0
0.23668 -9.00063e-05 0.0
0 0 0.0
0.0322488 -5.68378e-06 0.0
0.0956947 -3.36226e-05 0.0
0.0694261 -2.53299e-05 0.0
0.178877 -5.90191e-05 0.0
0.206269 -7.90625e-05 0.0
0.127477 -4.54328e-05 0.0
0.165874 -7.47339e-05 0.0
0.152326 -5.34425e-05 0.0
0 0 0.0
0.0360805 -4.86535e-06 0.0
0.0621974 -1.52534e-05 0.0
0.0956319 -3.4249e-05 0.0
0.127523 -4.58807e-05 0.0
0.15666 -6.67609e-05 0.0
0.115598 -5.27107e-05 0.0
0.193625 -0.000110391 0.0
0.21814 -0.000139866 0.0
0.240939 -0.000127506 0.0
0.247737 -0.000132265 0.0
0.25 -0.000133716 0.0
0.234397 -0.000162052 0.0
0.229577 -0.000117956 0.0
0.247728 -0.000131968 0.0
0.24092 -0.000127274 0.0
0 0 0.0
0.0344842 -7.88158e-06 0.0
0.103117 -5.18128e-05 0.0
0.0622982 -2.56706e-05 0.0
0.189728 -9.37158e-05 0.0
0.21299 -0.000131144 0.0
0.170536 -0.000101523 0.0
0.144332 -7.52526e-05 0.0
0 0 0.0
0.0399001 -8.38978e-06 0.0
0.0997895 -4.70526e-05 0.0
0.0693244 -2.49061e-05 0.0
0.170622 -0.000101664 0.0
0.144419 -7.6892e-05 0.0
0.124373 -7.80196e-05 0.0
0.183647 -0.000128704 0.0
0.204129 -0.000154253 0.0
0.222036 -0.000181798 0.0
0.249109 -0.000175787 0.0
0.244026 -0.000171079 0.0
0.249119 -0.000175798 0.0
0.238549 -0.000206652 0.0
0.234354 -0.000161084 0.0
0.244883 -0.000185369 0.0
0 0 0.0
0.0322875 -8.35341e-06 0.0
0.0940686 -5.45071e-05 0.0
0.0652104 -3.25287e-05 0.0
0.196699 -0.000140787 0.0
0.217873 -0.000173191 0.0
0.177442 -0.000142958 0.0
0.148694 -9.95289e-05 0.0
0.120333 -6.95494e-05 0.0
0 0 0.0
0.0343938 -7.9555e-06 0.0
0.0716492 -3.26112e-05 0.0
0.15242 -0.000111743 0.0
0.127608 -9.7058e-05 0.0
0.187574 -0.000159894 0.0
0.211947 -0.000199429 0.0
0.248606 -0.000218539 0.0
0.225682 -0.000226121 0.0
0.249782 -0.000220136 0.0
0.246473 -0.000216407 0.0
0.242063 -0.000253614 0.0
0.238491 -0.000206054 0.0
0 0 0.0
0.033868 -1.04838e-05 0.0
0.0999848 -7.2983e-05 0.0
0.0695352 -4.33916e-05 0.0
0.206264 -0.000186609 0.0
0.222408 -0.000217743 0.0
0.189981 -0.00019407 0.0
0.168259 -0.000156524 0.0
0.14301 -0.000119874 0.0
0.124199 -8.8282e-05 0.0
0.09709 -5.91877e-05 0.0
0 0 0.0
0.0360255 -1.01462e-05 0.0
0.0673222 -3.49816e-05 0.0
0.130326 -0.000117517 0.0
0.168476 -0.000157326 0.0
0.199468 -0.000205542 0.0
0.218374 -0.000241476 0.0
0.241994 -0.000254222 0.0
0.25 -0.000265442 0.0
0.24799 -0.000262328 0.0
0.229078 -0.00027271 0.0
0.244936 -0.000302518 0.0
0.24874 -0.000278682 0.0
0.234448 -0.000260584 0.0
0 0 0.0
0.0362239 -1.35351e-05 0.0
0.122648 -0.000120546 0.0
0.0712165 -5.14075e-05 0.0
0.208354 -0.000228671 0.0
0.22513 -0.000272516 0.0
0.198054 -0.000237619 0.0
0.177732 -0.000196529 0.0
0.146534 -0.000144654 0.0
0.11914 -0.000100838 0.0
0.0970589 -6.72219e-05 0.0
0 0 0.0
0.0349452 -1.13684e-05 0.0
0.067287 -3.94286e-05 0.0
0.152292 -0.000164693 0.0
0.17801 -0.000201237 0.0
0.21011 -0.000254907 0.0
0.24486 -0.00030243 0.0
0.24942 -0.00031073 0.0
0.232221 -0.000321373 0.0
0.244195 -0.000344662 0.0
0.249989 -0.000368079 0.0
0.249131 -0.000326652 0.0
0.235916 -0.000312671 0.0
0.212956 -0.000311972 0.0
0 0 0.0
0.0371504 -1.59653e-05 0.0
0.141098 -0.000168186 0.0
0.0999423 -0.000101434 0.0
0.0665843 -5.01256e-05 0.0
0.213635 -0.000278779 0.0
0.186616 -0.000242598 0.0
0.165094 -0.000197205 0.0
0.122251 -0.000121146 0.0
0.0928767 -7.3824e-05 0.0
0 0 0.0
0.0349173 -1.27033e-05 0.0
0.0642387 -4.1902e-05 0.0
0.165587 -0.000210996 0.0
0.186959 -0.000248136 0.0
0.15811 -0.000220999 0.0
0.247093 -0.000354017 0.0
0.248693 -0.000407526 0.0
0.231046 -0.000361376 0.0
0.240522 -0.000385785 0.0
0.248756 -0.000407191 0.0
0.240206 -0.000360228 0.0
0.229262 -0.000354053 0.0
0.199172 -0.000305543 0.0
0.218626 -0.000365614 0.0
0 0 0.0
0.0346361 -1.56696e-05 0.0
0.126153 -0.000163593 0.0
0.0681602 -5.67034e-05 0.0
0.098801 -0.000110579 0.0
0.208091 -0.000319485 0.0
0.189769 -0.000278338 0.0
0.168137 -0.000230807 0.0
0.140631 -0.000166864 0.0
0.0954224 -8.79501e-05 0.0
0 0 0.0
0.0332633 -1.30084e-05 0.0
0.0660712 -4.99418e-05 0.0
0.183211 -0.000288797 0.0
0.159247 -0.000247646 0.0
0.244901 -0.000420375 0.0
0.249661 -0.000461864 0.0
0.235955 -0.000423537 0.0
0.244854 -0.000447759 0.0
0.249377 -0.000460693 0.0
0.238625 -0.000425825 0.0
0.218429 -0.000384766 0.0
0.203093 -0.000357063 0.0
0.223361 -0.000418544 0.0
0 0 0.0
0.047788 -3.13501e-05 0.0
0.127901 -0.000186774 0.0
0.0904021 -0.000103817 0.0
0.202619 -0.000343804 0.0
0.17798 -0.000282504 0.0
0.147902 -0.000211661 0.0
0.118735 -0.000138436 0.0
0.0780454 -7.37843e-05 0.0
0 0 0.0
0.0342441 -1.53339e-05 0.0
0.187817 -0.000342498 0.0
0.160383 -0.000275865 0.0
0.246455 -0.00048102 0.0
0.25 -0.000518623 0.0
0.240133 -0.000489638 0.0
0.247573 -0.000540178 0.0
0.239866 -0.000489218 0.0
0.227301 -0.000452852 0.0
0.209741 -0.000402685 0.0
0.227714 -0.000475517 0.0
0.210277 -0.000419818 0.0
0 0 0.0
0.047848 -3.49737e-05 0.0
0.127992 -0.000208747 0.0
0.0904805 -0.000114219 0.0
0.187185 -0.000340629 0.0
0.159635 -0.000266678 0.0
0.0472158 -3.07138e-05 0.0
0.127103 -0.000184123 0.0
0.0896102 -0.000101549 0.0
0 0 0.0
0.18789 -0.000385369 0.0
0.160469 -0.000309104 0.0
0.247423 -0.00054639 0.0
0.249999 -0.000585001 0.0
0.240165 -0.000552636 0.0
0.24759 -0.00060792 0.0
0.227256 -0.000510496 0.0
0.239834 -0.000551536 0.0
0.187112 -0.000383131 0.0
0.209681 -0.000453623 0.0
0.227753 -0.000522522 0.0
0.21034 -0.000472426 0.0
0 0 0.0
0.0479141 -3.83739e-05 0.0
0.128093 -0.000232306 0.0
0.0905868 -0.000128174 0.0
0.127012 -0.000206512 0.0
0.159552 -0.000299545 0.0
0.0471598 -3.40605e-05 0.0
0.0895246 -0.000112927 0.0
0 0 0.0
0.187973 -0.000430819 0.0
0.160567 -0.000344909 0.0
0.247407 -0.00061394 0.0
0.249999 -0.000656061 0.0
0.227796 -0.000573683 0.0
0.240214 -0.00064724 0.0
0.247608 -0.000681009 0.0
0.227213 -0.000559426 0.0
0.239799 -0.00061848 0.0
0.18705 -0.000415839 0.0
0.209612 -0.000508001 0.0
0.21041 -0.00052862 0.0
0 0 0.0
0.0479916 -4.26811e-05 0.0
0.128225 -0.000261532 0.0
0.0906952 -0.000141648 0.0
0.126927 -0.000225723 0.0
0.159457 -0.000333837 0.0
0.0470918 -3.78244e-05 0.0
0.0894299 -0.000124703 0.0
0 0 0.0
0.160676 -0.000382914 0.0
0.18809 -0.000491733 0.0
0.247387 -0.000686381 0.0
0.249998 -0.00073237 0.0
0.240247 -0.000707244 0.0
0.227876 -0.000664295 0.0
0.247629 -0.000758563 0.0
0.239759 -0.000689843 0.0
0.227166 -0.000612786 0.0
0.186961 -0.000462961 0.0
0.209536 -0.000565839 0.0
0.210489 -0.000589376 0.0
0 0 0.0
0.0480696 -4.70821e-05 0.0
0.128335 -0.0002853 0.0
0.090815 -0.000156344 0.0
0.126816 -0.000249919 0.0
0.159351 -0.000370877 0.0
0 0 0.0
0.089324 -0.000137926 0.0
0.0470233 -4.15517e-05 0.0
0.188197 -0.000547298 0.0
0.160797 -0.000424721 0.0
0.227932 -0.000724726 0.0
0.247366 -0.000764928 0.0
0.249998 -0.000815032 0.0
0.247646 -0.000823954 0.0
0.240283 -0.000769984 0.0
0.239715 -0.000767172 0.0
0.227103 -0.000681921 0.0
0.186833 -0.000526522 0.0
0.20945 -0.00062905 0.0
0.210577 -0.000654307 0.0
0 0 0.0
0.0481585 -5.19118e-05 0.0
0.0909338 -0.000170423 0.0
0.128475 -0.000314885 0.0
0.126673 -0.000280014 0.0
0.159233 -0.000410626 0.0
0 0 0.0
0.0469411 -4.56779e-05 0.0
0.0892201 -0.000150103 0.0
0.188286 -0.000590555 0.0
0.160934 -0.000470113 0.0
0.227991 -0.000789611 0.0
0.240352 -0.000890176 0.0
0.247341 -0.000850082 0.0
0.249997 -0.000904087 0.0
0.247666 -0.00089276 0.0
0.239665 -0.000850836 0.0
0.227032 -0.000756899 0.0
0.186747 -0.000568459 0.0
0.209354 -0.000696404 0.0
0.210676 -0.000725409 0.0
0 0 0.0
0.0482574 -5.70006e-05 0.0
0.128657 -0.000353476 0.0
0.0910944 -0.000190426 0.0
0.126556 -0.00030432 0.0
0.159101 -0.000453608 0.0
0.0468591 -4.95761e-05 0.0
0 0 0.0
0.0890802 -0.000166474 0.0
0.161084 -0.000519537 0.0
0.188448 -0.000668879 0.0
0.228104 -0.000905323 0.0
0.240409 -0.000987013 0.0
0.247692 -0.000989521 0.0
0.247301 -0.000984164 0.0
0.249996 -0.00100252 0.0
0.239609 -0.000943662 0.0
0.226924 -0.000866441 0.0
0.186588 -0.000643114 0.0
0.209248 -0.000770799 0.0
0.210785 -0.000802256 0.0
0 0 0.0
0.0483652 -6.25849e-05 0.0
0.0912555 -0.000208976 0.0
0.16125 -0.000571976 0.0
0.128805 -0.000383461 0.0
0.126404 -0.000334894 0.0
0.158985 -0.000490496 0.0
0.0467638 -5.46626e-05 0.0
0 0 0.0
0.0889523 -0.000181361 0.0
0.210888 -0.00087348 0.0
0.188559 -0.000721994 0.0
0.240459 -0.0010687 0.0
0.228196 -0.00100313 0.0
0.247737 -0.0011425 0.0
0.249995 -0.00110827 0.0
0.247276 -0.00106394 0.0
0.239547 -0.00104281 0.0
0.226849 -0.000940563 0.0
0.186482 -0.00069228 0.0
0.158793 -0.000551238 0.0
0.209129 -0.000850388 0.0
0 0 0.0
0.0914169 -0.000228617 0.0
0.0484922 -6.96596e-05 0.0
0.161397 -0.000620019 0.0
0.129025 -0.000430363 0.0
0.126237 -0.000368561 0.0
0 0 0.0
0.0466595 -5.99307e-05 0.0
0.0887819 -0.000200912 0.0
0.211001 -0.000948943 0.0
0.188759 -0.000818281 0.0
0.240513 -0.00115651 0.0
0.2283 -0.0011087 0.0
0.247762 -0.00123631 0.0
0.249993 -0.0012248 0.0
0.24725 -0.00115146 0.0
0.15865 -0.000593092 0.0
0.209018 -0.000923701 0.0
0.239477 -0.00115012 0.0
0.226767 -0.00102113 0.0
0.186328 -0.000763354 0.0
0 0 0.0
0.0486173 -7.60701e-05 0.0
0.0916099 -0.00025152 0.0
0.161598 -0.000683013 0.0
0.12924 -0.000474772 0.0
0.0886099 -0.000219726 0.0
0.126023 -0.000410568 0.0
0 0 0.0
0.0465399 -6.60469e-05 0.0
0.211144 -0.00104713 0.0
0.18894 -0.000903529 0.0
0.240587 -0.00127654 0.0
0.228414 -0.00122446 0.0
0.247791 -0.00133649 0.0
0.249993 -0.00135315 0.0
0.247194 -0.00132583 0.0
0.158457 -0.00065178 0.0
0.239401 -0.00126963 0.0
0.208898 -0.00100067 0.0
0.22662 -0.00116623 0.0
0.186111 -0.000863269 0.0
0 0 0.0
0.091847 -0.000280162 0.0
0.0487623 -8.38412e-05 0.0
0.161864 -0.000767201 0.0
0.129476 -0.000523631 0.0
0.0884413 -0.00023876 0.0
0.125816 -0.000451692 0.0
0 0 0.0
0.0464136 -7.24703e-05 0.0
0.189139 -0.000997993 0.0
0.211305 -0.00115585 0.0
0.240669 -0.00141014 0.0
0.247832 -0.00147238 0.0
0.22854 -0.00135083 0.0
0.24999 -0.00149051 0.0
0.247151 -0.00146523 0.0
0.239316 -0.00139795 0.0
0.24955 -0.00159723 0.0
0.158242 -0.000715889 0.0
0.226494 -0.00128609 0.0
0.208691 -0.00113407 0.0
0.185967 -0.000927346 0.0
0 0 0.0
0.0920639 -0.000306544 0.0
0.0489324 -9.35669e-05 0.0
0.162063 -0.000830657 0.0
0.129737 -0.000577544 0.0
0.088237 -0.00026147 0.0
0.125624 -0.000489088 0.0
0 0 0.0
0.0462834 -7.90651e-05 0.0
0.189359 -0.0011009 0.0
0.211481 -0.0012755 0.0
0.240755 -0.00155377 0.0
0.228679 -0.00149176 0.0
0.247895 -0.00169813 0.0
0.249174 -0.00159705 0.0
0.2438 -0.00154981 0.0
0.233436 -0.00145526 0.0
0.249985 -0.00172734 0.0
0.158007 -0.000785997 0.0
0.218085 -0.00131695 0.0
0.203291 -0.00118996 0.0
0.185703 -0.00104274 0.0
0 0 0.0
0.0923239 -0.000338376 0.0
0.0491092 -0.000102816 0.0
0.162331 -0.000916865 0.0
0.130025 -0.000637917 0.0
0.125339 -0.000543969 0.0
0.0880122 -0.000286617 0.0
0 0 0.0
0.0461266 -8.62806e-05 0.0
0.189602 -0.00121513 0.0
0.211676 -0.00140741 0.0
0.247942 -0.00187022 0.0
0.228832 -0.00164539 0.0
0.240856 -0.00171463 0.0
0.247072 -0.00170554 0.0
0.23916 -0.00163221 0.0
0.226258 -0.0015084 0.0
0.249978 -0.00190333 0.0
0.157746 -0.000863934 0.0
0.208377 -0.00133482 0.0
0.185464 -0.00114696 0.0
0 0 0.0
0.0492959 -0.000112969 0.0
0.0926118 -0.000374577 0.0
0.130293 -0.000693852 0.0
0.189869 -0.00133922 0.0
0.162629 -0.00101214 0.0
0.125064 -0.000596441 0.0
0.0877652 -0.000314159 0.0
0.0459608 -9.44553e-05 0.0
0 0 0.0
0.22897 -0.00178492 0.0
0.211891 -0.00155468 0.0
0.247985 -0.00201881 0.0
0.240963 -0.00189349 0.0
0.226094 -0.00165923 0.0
0.24701 -0.00187813 0.0
0.239045 -0.00179688 0.0
0.249974 -0.00209693 0.0
0.185205 -0.00125916 0.0
0.1574 -0.000964216 0.0
0.208096 -0.00150989 0.0
0 0 0.0
0.0495127 -0.000125679 0.0
0.0929647 -0.000418666 0.0
0.130637 -0.000765636 0.0
0.190087 -0.00144545 0.0
0.163025 -0.00114447 0.0
0.124762 -0.000652815 0.0
0.0874681 -0.000346923 0.0
0.0457814 -0.000102861 0.0
0 0 0.0
0.124429 -0.000716466 0.0
0.229118 -0.0019308 0.0
0.212202 -0.0017717 0.0
0.241131 -0.0021746 0.0
0.248029 -0.00217565 0.0
0.225847 -0.00188594 0.0
0.238922 -0.00197614 0.0
0.246945 -0.00206974 0.0
0.249964 -0.00231003 0.0
0.184918 -0.00138265 0.0
0.157077 -0.00106112 0.0
0.207855 -0.00166301 0.0
0 0 0.0
0.0497524 -0.000139116 0.0
0.0933219 -0.000464139 0.0
0.131019 -0.000847573 0.0
0.190407 -0.00159423 0.0
0.163397 -0.00126695 0.0
0.0455813 -0.000113463 0.0
0.0871662 -0.00038081 0.0
0 0 0.0
0.124122 -0.000772899 0.0
0.229316 -0.00213441 0.0
0.212472 -0.00195831 0.0
0.241266 -0.00239848 0.0
0.248088 -0.0024013 0.0
0.225674 -0.00204174 0.0
0.238787 -0.00217337 0.0
0.249956 -0.00254616 0.0
0.246836 -0.00238034 0.0
0.184681 -0.00148062 0.0
0.156722 -0.00116456 0.0
0.207589 -0.00182617 0.0
0 0 0.0
0.0500162 -0.000153845 0.0
0.0937145 -0.000513511 0.0
0.131504 -0.000951333 0.0
0.190846 -0.00180533 0.0
0.212767 -0.00216653 0.0
0.163803 -0.00140434 0.0
0.0453777 -0.000123343 0.0
0.086839 -0.000416479 0.0
0 0 0.0
0.123728 -0.000846767 0.0
0.229609 -0.00243563 0.0
0.241382 -0.00259903 0.0
0.248154 -0.00264926 0.0
0.249944 -0.00274117 0.0
0.225491 -0.00220575 0.0
0.238628 -0.00239425 0.0
0.246749 -0.00262076 0.0
0.156332 -0.00127878 0.0
0.184341 -0.00162542 0.0
0.207293 -0.00200529 0.0
0 0 0.0
0.0503289 -0.00017268 0.0
0.0941538 -0.000571963 0.0
0.13198 -0.00105803 0.0
0.191143 -0.00195115 0.0
0.213089 -0.0023931 0.0
0.164254 -0.00155707 0.0
0.0451422 -0.000134405 0.0
0.0864792 -0.000455538 0.0
0 0 0.0
0.155994 -0.0013712 0.0
0.086087 -0.000496128 0.0
0.123228 -0.000938814 0.0
0.229855 -0.00270328 0.0
0.241504 -0.00280609 0.0
0.248254 -0.00305371 0.0
0.249935 -0.00294556 0.0
0.246675 -0.0028255 0.0
0.225247 -0.00242203 0.0
0.238389 -0.00273677 0.0
0.183865 -0.00182249 0.0
0.207019 -0.00217611 0.0
0.230075 -0.00293101 0.0
0 0 0.0
0.0506594 -0.000192682 0.0
0.132505 -0.00117818 0.0
0.0946404 -0.000639033 0.0
0.213447 -0.00265361 0.0
0.191677 -0.00221698 0.0
0.164751 -0.00172838 0.0
0.0448738 -0.000146767 0.0
0 0 0.0
0.183549 -0.00195658 0.0
0.155531 -0.00150335 0.0
0.122744 -0.00102939 0.0
0.0445888 -0.000161133 0.0
0.0856543 -0.000543372 0.0
0.241674 -0.00310111 0.0
0.248312 -0.00329833 0.0
0.249912 -0.00324639 0.0
0.249896 -0.00349567 0.0
0.246589 -0.00304275 0.0
0.22497 -0.00266306 0.0
0.238182 -0.00301147 0.0
0.206719 -0.00234974 0.0
0.230303 -0.00318269 0.0
0.0510125 -0.00021591 0.0
0 0 0.0
0.132996 -0.00128968 0.0
0.0951789 -0.000713032 0.0
0.213835 -0.00294086 0.0
0.192035 -0.00239998 0.0
0.165302 -0.0019233 0.0
0 0 0.0
0.183094 -0.00213937 0.0
0.154917 -0.00167318 0.0
0.1223 -0.00110542 0.0
0.0442987 -0.000174796 0.0
0.0851841 -0.000592847 0.0
0.241926 -0.00356898 0.0
0.248374 -0.00355455 0.0
0.249871 -0.00375736 0.0
0.246415 -0.00348799 0.0
0.224671 -0.00292191 0.0
0.237965 -0.00331079 0.0
0.206212 -0.0026518 0.0
0.230617 -0.00352693 0.0
0 0 0.0
0.0514237 -0.000243815 0.0
0.133629 -0.00144077 0.0
0.0957228 -0.000791715 0.0
0.165907 -0.00213942 0.0
0.214263 -0.00326667 0.0
0.192685 -0.00273424 0.0
0 0 0.0
0 0 0.0
0.182589 -0.00234402 0.0
0.154347 -0.00183316 0.0
0.121729 -0.00120878 0.0
0.0846704 -0.000646188 0.0
0.0439653 -0.000189546 0.0
0.242126 -0.00394615 0.0
0.24845 -0.00392488 0.0
0.237767 -0.00356932 0.0
0.249836 -0.00413731 0.0
0.246269 -0.00384274 0.0
0.224334 -0.00320996 0.0
0.20577 -0.00290495 0.0
0.242291 -0.00428147 0.0
0.230941 -0.00390956 0.0
0.0518814 -0.000272805 0.0
0.0963831 -0.000883931 0.0
0.134337 -0.00161728 0.0
0.16644 -0.00234157 0.0
0.214731 -0.00362751 0.0
0.193116 -0.00297503 0.0
0 0 0.0
0 0 0.0
0.153855 -0.00196097 0.0
0.181891 -0.00261612 0.0
0.0841664 -0.000695122 0.0
0.121008 -0.00133449 0.0
0.0436009 -0.000207092 0.0
0.248571 -0.00451462 0.0
0.249783 -0.00456047 0.0
0.205287 -0.00318024 0.0
0.237549 -0.00384084 0.0
0.246146 -0.00414101 0.0
0.223822 -0.00363271 0.0
0.242471 -0.00463062 0.0
0.231439 -0.00449646 0.0
0.215235 -0.0040373 0.0
0.0524301 -0.000310232 0.0
0.0971282 -0.00100011 0.0
0.135245 -0.00185278 0.0
0.167169 -0.00261478 0.0
0.193898 -0.00341503 0.0
0 0 0.0
0 0 0.0
0.153044 -0.00217428 0.0
0.181266 -0.00286299 0.0
0.0834974 -0.00076299 0.0
0.120317 -0.00145069 0.0
0.043189 -0.000223857 0.0
0.246006 -0.00445885 0.0
0.24972 -0.00501472 0.0
0.248641 -0.00498902 0.0
0.204754 -0.00347638 0.0
0.237256 -0.00421689 0.0
0.223392 -0.00398999 0.0
0.18058 -0.00312508 0.0
0.242786 -0.00532685 0.0
0 0 0.0
0.231816 -0.00500542 0.0
0.194594 -0.00382963 0.0
0.215777 -0.00449418 0.0
0.0530028 -0.000354853 0.0
0.136002 -0.00206394 0.0
0.0980623 -0.00116154 0.0
0.168137 -0.00302315 0.0
0 0 0.0
0 0 0.0
0 0 0.0
0 0 0.0
0 0 0.0
0.0427833 -0.000239793 0.0
0.119558 -0.00157952 0.0
0.152294 -0.00237132 0.0
0.0829009 -0.000821762 0.0
0.245801 -0.00488982 0.0
0.249635 -0.005516 0.0
0.248716 -0.00550793 0.0
0.223001 -0.00428872 0.0
0.204161 -0.00379723 0.0
0.236771 -0.00478975 0.0
0.203615 -0.00408701 0.0
0.180022 -0.00332861 0.0
0.243012 -0.00590135 0.0
0.232225 -0.00555616 0.0
0 0 0.0
6.69722e-05 -3.41108e-05 0.0
0 0 0.0
-9.36374e-05 7.51933e-05 0.0
0.216364 -0.00501979 0.0
0.195163 -0.00417554 0.0
0.053719 -0.000415031 0.0
0.136983 -0.00234626 0.0
0.0990313 -0.00134175 0.0
0.169052 -0.00342968 0.0
0 0 0.0
0 0 0.0
0 0 0.0
-5.10048e-05 -0.000130011 0.0
3.71063e-05 -0.00017114 0.0
0.000131661 -0.000143229 0.0
0 0 0.0
0.0423187 -0.000260275 0.0
0.118866 -0.00169095 0.0
0.151475 -0.00257735 0.0
0.082111 -0.000895335 0.0
0.245572 -0.00536965 0.0
0.249526 -0.00605941 0.0
0.248775 -0.00607007 0.0
0.222578 -0.00461305 0.0
0.236465 -0.00515864 0.0
0.203019 -0.00438636 0.0
0.179007 -0.00369109 0.0
0.243246 -0.00652471 0.0
0.235743 -0.00623467 0.0
0.225375 -0.00582688 0.0
0 0 0.0
0.000183141 -4.8691e-05 0.0
0 0 0.0
0 0 0.0
-0.000378016 0.000585117 0.0
-0.00027262 0.000121546 0.0
0.212124 -0.00533713 0.0
0.195959 -0.00470575 0.0
0.100023 -0.00154106 0.0
0.0544822 -0.000495122 0.0
0.138079 -0.00269973 0.0
0.170038 -0.00390823 0.0
0 0 0.0
1.05231e-05 -0.000285781 0.0
-0.000112015 -0.000177303 0.0
0.000109869 -0.000250171 0.0
0.00024448 -0.000139179 0.0
0 0 0.0
0.0418187 -0.000280764 0.0
0.117983 -0.00183 0.0
0.150584 -0.00278911 0.0
0.0813249 -0.000967383 0.0
0.245301 -0.00588172 0.0
0.249393 -0.0066455 0.0
0.248817 -0.00668239 0.0
0.221801 -0.00519129 0.0
0.236119 -0.00553528 0.0
0.202254 -0.00476917 0.0
0.149608 -0.00302598 0.0
0.178103 -0.00400894 0.0
0.243425 -0.00705928 0.0
0.232921 -0.0066228 0.0
0.217428 -0.00609232 0.0
0 0 0.0
0.000299143 -3.15142e-05 0.0
0 0 0.0
0 0 0.0
0 0 0.0
0 0 0.0
-0.000395285 0.000168756 0.0
-0.000141772 0.00073747 0.0
-0.000451159 0.00104901 0.0
-0.000981211 0.00151934 0.0
-0.000676314 0.00071922 0.0
0 0 0.0
-0.000118552 0.00211344 0.0
0.197016 -0.00550847 0.0
0.170887 -0.0043769 0.0
0 0 0.0
0.0554771 -0.000614436 0.0
0.101275 -0.00182922 0.0
0.139495 -0.00325732 0.0
0 0 0.0
0 0 0.0
-7.90702e-05 -0.000149043 0.0