# vtk DataFile Version 3.0
Mesh NS-CD Problem
ASCII
DATASET UNSTRUCTURED_GRID
POINTS 10839 float
-2 0.3 0.0
-2 0.4 0.0
-2 0.35 0.0
-2 0.45 0.0
-2 0.5 0.0
-2 0.55 0.0
-2 0 0.0
-2 0.05 0.0
-2 0.85 0.0
-2 0.9 0.0
-2 0.1 0.0
-2 0.15 0.0
-2 0.25 0.0
-2 0.2 0.0
-1.96653 0.266667 0.0
-1.96524 0.415385 0.0
-1.96485 0.315 0.0
-1.96348 0.363636 0.0
-1.96414 0.464286 0.0
-2 0.6 0.0
-1.96538 0.584615 0.0
-1.96538 0.538462 0.0
-1.94979 0 0.0
-1.96653 0.0666666 0.0
-1.93306 0.0333333 0.0
-2 0.8 0.0
-2 0.75 0.0
-2 0.7 0.0
-2 0.65 0.0
-1.96249 0.7375 0.0
-1.96666 0.833333 0.0
-2 1 0.0
-2 0.95 0.0
-1.96249 0.8875 0.0
-1.96666 0.933333 0.0
-1.96234 0.1125 0.0
-1.96653 0.166667 0.0
-1.93724 0.225 0.0
-1.92971 0.28 0.0
-1.93048 0.380769 0.0
-1.93048 0.423077 0.0
-1.89958 0.3375 0.0
-1.9292 0.484203 0.0
-1.92117 0.530907 0.0
-1.96363 0.636364 0.0
-1.93076 0.576923 0.0
-1.89958 0 0.0
-1.88703 0.0375 0.0
-1.90963 0.08 0.0
-1.86611 0.0666666 0.0
-1.93749 0.775 0.0
-1.93635 0.672727 0.0
-1.92999 0.72 0.0
-1.93332 0.866667 0.0
-1.92856 0.821429 0.0
-1.94999 1 0.0
-1.92499 0.9625 0.0
-1.92499 0.925 0.0
-1.89998 0.9 0.0
-1.89958 0.125 0.0
-1.92827 0.178571 0.0
-1.89958 0.233333 0.0
-1.89045 0.290909 0.0
-1.86096 0.311538 0.0
-1.89241 0.392857 0.0
-1.89334 0.448489 0.0
-1.85655 0.357143 0.0
-1.89614 0.653846 0.0
-1.89427 0.504121 0.0
-1.8952 0.559753 0.0
-1.89614 0.615385 0.0
-1.84937 0 0.0
-1.83264 0.0333333 0.0
-1.85655 0.107143 0.0
-1.81172 0.075 0.0
-1.89998 0.766667 0.0
-1.89089 0.709091 0.0
-1.87498 0.85 0.0
-1.85998 0.79 0.0
-1.88748 0.8125 0.0
-1.89998 1 0.0
-1.88748 0.9625 0.0
-1.86664 0.933333 0.0
-1.85712 0.892857 0.0
-1.87448 0.15 0.0
-1.86611 0.194444 0.0
-1.83264 0.133333 0.0
-1.83264 0.2625 0.0
-1.82068 0.321429 0.0
-1.85664 0.404762 0.0
-1.85674 0.452381 0.0
-1.85683 0.5 0.0
-1.81184 0.375 0.0
-1.85712 0.642857 0.0
-1.85693 0.547619 0.0
-1.85702 0.595238 0.0
-1.79917 0 0.0
-1.78482 0.0357143 0.0
-1.79917 0.116667 0.0
-1.76569 0.0666666 0.0
-1.85452 0.745455 0.0
-1.82689 0.692308 0.0
-1.81815 0.781818 0.0
-1.82497 0.825 0.0
-1.84997 1 0.0
-1.8333 0.958333 0.0
-1.81247 0.8875 0.0
-1.81247 0.925 0.0
-1.81742 0.218182 0.0
-1.82427 0.175 0.0
-1.77634 0.145455 0.0
-1.79144 0.242308 0.0
-1.78482 0.285714 0.0
-1.77469 0.332653 0.0
-1.81215 0.529762 0.0
-1.81194 0.422619 0.0
-1.81203 0.470238 0.0
-1.76714 0.392857 0.0
-1.81234 0.625 0.0
-1.79732 0.571429 0.0
-1.74896 0 0.0
-1.73222 0.0333333 0.0
-1.75398 0.105 0.0
-1.71883 0.07 0.0
-1.79227 0.730769 0.0
-1.78007 0.679121 0.0
-1.75765 0.769231 0.0
-1.78178 0.818182 0.0
-1.78996 0.86 0.0
-1.79996 1 0.0
-1.78568 0.964286 0.0
-1.76663 0.922222 0.0
-1.76569 0.1875 0.0
-1.73222 0.15 0.0
-1.74896 0.25 0.0
-1.73714 0.304762 0.0
-1.76743 0.537202 0.0
-1.72869 0.343878 0.0
-1.76732 0.485119 0.0
-1.76723 0.440476 0.0
-1.72243 0.410714 0.0
-1.76757 0.607143 0.0
-1.69875 0 0.0
-1.68369 0.035 0.0
-1.69875 0.1125 0.0
-1.66528 0.075 0.0
-1.74341 0.708974 0.0
-1.73324 0.665934 0.0
-1.70441 0.74478 0.0
-1.71423 0.785714 0.0
-1.72303 0.826923 0.0
-1.74541 0.854545 0.0
-1.74541 0.890909 0.0
-1.74996 1 0.0
-1.73745 0.9625 0.0
-1.71359 0.927273 0.0
-1.68716 0.153846 0.0
-1.7131 0.214286 0.0
-1.70725 0.275 0.0
-1.69712 0.321939 0.0
-1.72279 0.589286 0.0
-1.72261 0.5 0.0
-1.7227 0.544643 0.0
-1.6827 0.355102 0.0
-1.67773 0.428571 0.0
-1.70763 0.464286 0.0
-1.70369 0.62449 0.0
-1.64854 0 0.0
-1.63181 0.0375 0.0
-1.64137 0.142857 0.0
-1.61764 0.0769231 0.0
-1.69458 0.703846 0.0
-1.67471 0.657437 0.0
-1.66143 0.727637 0.0
-1.67125 0.768571 0.0
-1.67851 0.821429 0.0
-1.68841 0.861538 0.0
-1.70904 0.890909 0.0
-1.69995 1 0.0
-1.68176 0.963636 0.0
-1.67267 0.927273 0.0
-1.65427 0.187143 0.0
-1.66718 0.231429 0.0
-1.66554 0.3 0.0
-1.67802 0.571429 0.0
-1.67792 0.523809 0.0
-1.6367 0.366327 0.0
-1.63682 0.423469 0.0
-1.62568 0.502976 0.0
-1.6629 0.470238 0.0
-1.65254 0.618367 0.0
-1.6059 0.307143 0.0
-1.59833 0 0.0
-1.58288 0.0384615 0.0
-1.60563 0.169643 0.0
-1.58179 0.112271 0.0
-1.56964 0.0714286 0.0
-1.64574 0.690385 0.0
-1.62827 0.751429 0.0
-1.63371 0.791071 0.0
-1.64279 0.857143 0.0
-1.65378 0.896154 0.0
-1.64994 1 0.0
-1.6363 0.963636 0.0
-1.61916 0.930769 0.0
-1.61345 0.209107 0.0
-1.62126 0.248571 0.0
-1.56989 0.196429 0.0
-1.63324 0.553571 0.0
-1.58846 0.535714 0.0
-1.59408 0.361905 0.0
-1.59161 0.402211 0.0
-1.58832 0.464286 0.0
-1.61504 0.598581 0.0
-1.59683 0.64359 0.0
-1.57899 0.274107 0.0
-1.56176 0.322381 0.0
-1.54812 0 0.0
-1.53378 0.0357143 0.0
-1.54593 0.147619 0.0
-1.53385 0.0732143 0.0
-1.53393 0.110714 0.0
-1.58522 0.704286 0.0
-1.58709 0.745 0.0
-1.58896 0.785714 0.0
-1.60695 0.830357 0.0
-1.60707 0.892857 0.0
-1.59993 1 0.0
-1.58454 0.965385 0.0
-1.57135 0.928571 0.0
-1.55209 0.241071 0.0
-1.5291 0.198214 0.0
-1.56936 0.570918 0.0
-1.54369 0.517857 0.0
-1.5464 0.380952 0.0
-1.54564 0.427721 0.0
-1.54488 0.47449 0.0
-1.55026 0.606122 0.0
-1.54222 0.677143 0.0
-1.52943 0.282857 0.0
-1.52143 0.33619 0.0
-1.49792 0 0.0
-1.49802 0.05 0.0
-1.49822 0.15 0.0
-1.49312 0.1 0.0
-1.5423 0.717143 0.0
-1.54419 0.767857 0.0
-1.54727 0.819048 0.0
-1.57122 0.861905 0.0
-1.53553 0.914286 0.0
-1.54992 1 0.0
-1.53563 0.964286 0.0
-1.49842 0.25 0.0
-1.48831 0.2 0.0
-1.5214 0.558929 0.0
-1.49891 0.5 0.0
-1.49871 0.4 0.0
-1.47631 0.45 0.0
-1.49911 0.6 0.0
-1.49921 0.65 0.0
-1.49931 0.7 0.0
-1.48111 0.35 0.0
-1.48351 0.3 0.0
-1.44771 0 0.0
-1.44782 0.05 0.0
-1.44804 0.15 0.0
-1.44793 0.1 0.0
-1.49941 0.75 0.0
-1.49951 0.8 0.0
-1.49981 0.95 0.0
-1.49961 0.85 0.0
-1.49971 0.9 0.0
-1.49991 1 0.0
-1.44826 0.25 0.0
-1.43815 0.2 0.0
-1.47151 0.55 0.0
-1.44881 0.5 0.0
-1.44859 0.4 0.0
-1.42619 0.45 0.0
-1.44913 0.65 0.0
-1.44902 0.6 0.0
-1.44935 0.75 0.0
-1.44924 0.7 0.0
-1.43972 0.35 0.0
-1.43336 0.3 0.0
-1.3975 0 0.0
-1.39762 0.05 0.0
-1.39786 0.15 0.0
-1.39274 0.1 0.0
-1.44957 0.85 0.0
-1.44946 0.8 0.0
-1.4523 0.95 0.0
-1.44968 0.9 0.0
-1.4499 1 0.0
-1.3981 0.25 0.0
-1.38798 0.2 0.0
-1.42141 0.55 0.0
-1.3987 0.5 0.0
-1.39834 0.35 0.0
-1.37845 0.4 0.0
-1.37607 0.45 0.0
-1.40784 0.65 0.0
-1.39894 0.6 0.0
-1.41185 0.75 0.0
-1.39918 0.7 0.0
-1.38322 0.3 0.0
-1.34729 0 0.0
-1.34492 0.05 0.0
-1.34018 0.15 0.0
-1.34255 0.1 0.0
-1.40707 0.85 0.0
-1.39941 0.8 0.0
-1.39977 0.95 0.0
-1.39965 0.9 0.0
-1.39989 1 0.0
-1.33781 0.2 0.0
-1.33544 0.25 0.0
-1.37131 0.55 0.0
-1.34859 0.5 0.0
-1.33833 0.4 0.0
-1.3307 0.35 0.0
-1.32595 0.45 0.0
-1.34885 0.6 0.0
-1.36655 0.65 0.0
-1.36179 0.75 0.0
-1.34911 0.7 0.0
-1.33307 0.3 0.0
-1.29708 0 0.0
-1.29722 0.05 0.0
-1.2975 0.15 0.0
-1.29236 0.1 0.0
-1.35703 0.85 0.0
-1.34937 0.8 0.0
-1.34988 1 0.0
-1.34962 0.9 0.0
-1.35226 0.95 0.0
-1.28528 0.25 0.0
-1.28764 0.2 0.0
-1.28931 0.35 0.0
-1.32121 0.55 0.0
-1.29848 0.5 0.0
-1.28709 0.45 0.0
-1.2982 0.4 0.0
-1.29876 0.6 0.0
-1.31647 0.65 0.0
-1.29918 0.75 0.0
-1.29904 0.7 0.0
-1.28292 0.3 0.0
-1.24687 0 0.0
-1.24702 0.05 0.0
-1.24717 0.1 0.0
-1.24732 0.15 0.0
-1.29946 0.85 0.0
-1.29932 0.8 0.0
-1.29987 1 0.0
-1.29974 0.95 0.0
-1.30462 0.9 0.0
-1.24762 0.25 0.0
-1.23747 0.2 0.0
-1.24792 0.35 0.0
-1.22807 0.4 0.0
-1.27111 0.55 0.0
-1.24837 0.5 0.0
-1.24822 0.45 0.0
-1.24867 0.6 0.0
-1.26639 0.65 0.0
-1.26167 0.75 0.0
-1.24897 0.7 0.0
-1.23277 0.3 0.0
-1.19667 0 0.0
-1.19683 0.05 0.0
-1.18964 0.15 0.0
-1.19198 0.1 0.0
-1.25695 0.85 0.0
-1.24927 0.8 0.0
-1.25223 0.95 0.0
-1.24987 1 0.0
-1.24957 0.9 0.0
-1.1873 0.2 0.0
-1.18496 0.25 0.0
-1.18028 0.35 0.0
-1.17794 0.4 0.0
-1.1981 0.45 0.0
-1.19842 0.55 0.0
-1.19826 0.5 0.0
-1.19858 0.6 0.0
-1.19874 0.65 0.0
-1.19906 0.75 0.0
-1.1989 0.7 0.0
-1.18262 0.3 0.0
-1.14646 0 0.0
-1.14663 0.05 0.0
-1.1418 0.1 0.0
-1.13713 0.2 0.0
-1.14697 0.15 0.0
-1.20691 0.85 0.0
-1.20926 0.8 0.0
-1.20221 0.95 0.0
-1.19986 1 0.0
-1.20456 0.9 0.0
-1.13997 0.3 0.0
-1.14731 0.25 0.0
-1.13781 0.4 0.0
-1.13014 0.35 0.0
-1.12548 0.45 0.0
-1.14815 0.5 0.0
-1.15962 0.55 0.0
-1.14849 0.6 0.0
-1.15745 0.65 0.0
-1.16155 0.75 0.0
-1.14917 0.8 0.0
-1.14883 0.7 0.0
-1.09625 0 0.0
-1.09661 0.1 0.0
-1.09393 0.05 0.0
-1.09697 0.2 0.0
-1.08929 0.15 0.0
-1.15687 0.85 0.0
-1.14985 1 0.0
-1.15219 0.95 0.0
-1.14951 0.9 0.0
-1.09733 0.3 0.0
-1.08465 0.25 0.0
-1.09769 0.4 0.0
-1.08 0.35 0.0
-1.08661 0.45 0.0
-1.09804 0.5 0.0
-1.12082 0.55 0.0
-1.10916 0.8 0.0
-1.10629 0.7 0.0
-1.0984 0.6 0.0
-1.11616 0.65 0.0
-1.11149 0.75 0.0
-1.04604 0 0.0
-1.04623 0.05 0.0
-1.04642 0.1 0.0
-1.0468 0.2 0.0
-1.03911 0.15 0.0
-1.09948 0.9 0.0
-1.0993 0.85 0.0
-1.09984 1 0.0
-1.09966 0.95 0.0
-1.04718 0.3 0.0
-1.03449 0.25 0.0
-1.04756 0.4 0.0
-1.02986 0.35 0.0
-1.04775 0.45 0.0
-1.04794 0.5 0.0
-1.04813 0.55 0.0
-1.05911 0.8 0.0
-1.04831 0.6 0.0
-1.06376 0.7 0.0
-1.0485 0.65 0.0
-1.04888 0.75 0.0
-0.995833 0 0.0
-0.991231 0.1 0.0
-0.996033 0.05 0.0
-0.986629 0.2 0.0
-0.98893 0.15 0.0
-1.05447 0.9 0.0
-1.04926 0.85 0.0
-1.04983 1 0.0
-1.04964 0.95 0.0
-0.984328 0.25 0.0
-0.99703 0.3 0.0
-0.997429 0.4 0.0
-0.997628 0.45 0.0
-0.979726 0.35 0.0
-0.997827 0.5 0.0
-0.998027 0.55 0.0
-0.998226 0.6 0.0
-0.961416 0.475 0.0
-1.00907 0.8 0.0
-0.998426 0.65 0.0
-0.998625 0.7 0.0
-1.01138 0.75 0.0
-0.945625 0 0.0
-0.946044 0.1 0.0
-0.943334 0.05 0.0
-0.946463 0.2 0.0
-0.938752 0.15 0.0
-1.00444 0.9 0.0
-1.00675 0.85 0.0
-0.999821 1 0.0
-1.00213 0.95 0.0
-0.93417 0.25 0.0
-0.946881 0.3 0.0
-0.9473 0.4 0.0
-0.929588 0.35 0.0
-0.925005 0.45 0.0
-0.960371 0.525 0.0
-0.959325 0.575 0.0
-0.958279 0.625 0.0
-0.922714 0.5 0.0
-0.959017 0.8 0.0
-0.957233 0.675 0.0
-0.952999 0.7125 0.0
-0.948766 0.75 0.0
-0.895417 0 0.0
-0.895855 0.1 0.0
-0.893136 0.05 0.0
-0.896294 0.2 0.0
-0.888573 0.15 0.0
-0.949184 0.85 0.0
-0.954415 0.9 0.0
-0.949812 1 0.0
-0.949603 0.95 0.0
-0.884011 0.25 0.0
-0.896733 0.3 0.0
-0.874887 0.45 0.0
-0.879449 0.35 0.0
-0.897171 0.4 0.0
-0.920423 0.55 0.0
-0.918132 0.6 0.0
-0.915841 0.65 0.0
-0.872606 0.5 0.0
-0.908968 0.8 0.0
-0.91355 0.7 0.0
-0.898707 0.75 0.0
-0.845208 0 0.0
-0.845438 0.05 0.0
-0.845667 0.1 0.0
-0.845896 0.15 0.0
-0.833853 0.25 0.0
-0.846126 0.2 0.0
-0.899146 0.85 0.0
-0.904386 0.9 0.0
-0.899584 0.95 0.0
-0.899804 1 0.0
-0.838062 0.35 0.0
[...]
POINT_DATA 10839
VECTORS Velocity float
0.21 0 0.0
0.24 0 0.0
0.2275 0 0.0
0.2475 0 0.0
0.25 0 0.0
0.2475 0 0.0
0 0 0.0
0.0475 0 0.0
0.1275 0 0.0
0.09 0 0.0
0.09 0 0.0
0.1275 0 0.0
0.1875 0 0.0
0.16 0 0.0
0.195557 -2.34593e-05 0.0
0.242841 -3.20516e-05 0.0
0.215776 -2.79434e-05 0.0
0.231406 -3.15166e-05 0.0
0.248725 -3.41322e-05 0.0
0.24 0 0.0
0.24284 -3.19784e-05 0.0
0.24852 -3.2869e-05 0.0
0 0 0.0
0.0622239 -4.06205e-06 0.0
0.0322268 -2.68357e-06 0.0
0.16 0 0.0
0.1875 0 0.0
0.21 0 0.0
0.2275 0 0.0
0.193592 -2.63317e-05 0.0
0.138887 -1.45863e-05 0.0
0 0 0.0
0.0475 0 0.0
0.0998415 -1.01131e-05 0.0
0.0622206 -4.10736e-06 0.0
0.0998461 -1.05692e-05 0.0
0.138891 -1.47187e-05 0.0
0.17438 -3.69709e-05 0.0
0.201605 -5.0703e-05 0.0
0.235787 -6.19746e-05 0.0
0.244085 -6.48647e-05 0.0
0.223602 -8.31116e-05 0.0
0.249751 -6.77815e-05 0.0
0.249044 -7.5543e-05 0.0
0.231404 -3.20292e-05 0.0
0.244081 -6.4092e-05 0.0
0 0 0.0
0.0361077 -5.20207e-06 0.0
0.0736123 -1.45659e-05 0.0
0.0622484 -1.59716e-05 0.0
0.17437 -3.64204e-05 0.0
0.220162 -5.06999e-05 0.0
0.201594 -5.07744e-05 0.0
0.115549 -2.17847e-05 0.0
0.146676 -3.38117e-05 0.0
0 0 0.0
0.0360876 -3.49942e-06 0.0
0.0693663 -1.13761e-05 0.0
0.0899839 -2.26256e-05 0.0
0.109391 -3.06451e-05 0.0
0.146691 -3.31631e-05 0.0
0.178902 -6.2076e-05 0.0
0.206293 -8.12698e-05 0.0
0.2145 -0.000109647 0.0
0.238527 -9.72526e-05 0.0
0.24735 -0.000101296 0.0
0.229607 -0.000123883 0.0
0.226324 -8.73362e-05 0.0
0.249983 -0.000101801 0.0
0.246426 -9.90263e-05 0.0
0.23668 -9.32039e-05 0.0
0 0 0.0
0.0322497 -5.88761e-06 0.0
0.0956958 -3.483e-05 0.0
0.0694279 -2.62472e-05 0.0
0.178876 -6.11215e-05 0.0
0.206269 -8.18777e-05 0.0
0.127477 -4.70605e-05 0.0
0.165874 -7.74109e-05 0.0
0.152326 -5.53513e-05 0.0
0 0 0.0
0.03608 -5.03796e-06 0.0
0.0621965 -1.57997e-05 0.0
0.0956307 -3.548e-05 0.0
0.127524 -4.75221e-05 0.0
0.15666 -6.91479e-05 0.0
0.1156 -5.46093e-05 0.0
0.193626 -0.00011434 0.0
0.218141 -0.000144861 0.0
0.24094 -0.000132043 0.0
0.247737 -0.000136969 0.0
0.25 -0.000138471 0.0
0.234397 -0.000167833 0.0
0.229577 -0.000122161 0.0
0.247727 -0.000136663 0.0
0.24092 -0.000131805 0.0
0 0 0.0
0.0344858 -8.16724e-06 0.0
0.10312 -5.369e-05 0.0
0.062301 -2.66059e-05 0.0
0.189727 -9.70682e-05 0.0
0.212989 -0.000135835 0.0
0.170535 -0.000105173 0.0
0.14433 -7.79645e-05 0.0
0 0 0.0
0.039899 -8.69171e-06 0.0
0.0997876 -4.87561e-05 0.0
0.0693226 -2.58087e-05 0.0
0.170623 -0.000105313 0.0
0.14442 -7.96578e-05 0.0
0.124375 -8.08463e-05 0.0
0.183649 -0.000133325 0.0
0.204131 -0.000159779 0.0
0.222038 -0.000188298 0.0
0.249109 -0.000182051 0.0
0.244026 -0.000177176 0.0
0.24912 -0.000182061 0.0
0.23855 -0.000214028 0.0
0.234353 -0.000166836 0.0
0.244883 -0.000191982 0.0
0 0 0.0
0.0322898 -8.65868e-06 0.0
0.0940719 -5.64931e-05 0.0
0.0652144 -3.37212e-05 0.0
0.196697 -0.000145842 0.0
0.217872 -0.000179395 0.0
0.177439 -0.000148113 0.0
0.148691 -0.000103128 0.0
0.120331 -7.20708e-05 0.0
0 0 0.0
0.0343922 -8.24358e-06 0.0
0.0716463 -3.38007e-05 0.0
0.152423 -0.000115778 0.0
0.127612 -0.000100584 0.0
0.187577 -0.000165643 0.0
0.21195 -0.000206575 0.0
0.248605 -0.000226334 0.0
0.225684 -0.000234207 0.0
0.249783 -0.000227985 0.0
0.246474 -0.000224125 0.0
0.242064 -0.000262664 0.0
0.23849 -0.000213416 0.0
0 0 0.0
0.0338714 -1.08698e-05 0.0
0.0999899 -7.56526e-05 0.0
0.069541 -4.49889e-05 0.0
0.206261 -0.000193312 0.0
0.222406 -0.000225544 0.0
0.189977 -0.000201062 0.0
0.168256 -0.000162185 0.0
0.143006 -0.000124227 0.0
0.124196 -9.14936e-05 0.0
0.0970864 -6.13484e-05 0.0
0 0 0.0
0.036023 -1.0517e-05 0.0
0.067318 -3.62654e-05 0.0
0.130331 -0.000121792 0.0
0.16848 -0.000163005 0.0
0.199471 -0.000212922 0.0
0.218377 -0.000250119 0.0
0.241992 -0.000263301 0.0
0.25 -0.000274907 0.0
0.247989 -0.000271685 0.0
0.22908 -0.000282451 0.0
0.244937 -0.000313298 0.0
0.24874 -0.000288617 0.0
0.234446 -0.0002699 0.0
0 0 0.0
0.0362287 -1.40367e-05 0.0
0.122655 -0.000124945 0.0
0.0712242 -5.33053e-05 0.0
0.208351 -0.000236882 0.0
0.225127 -0.000282269 0.0
0.19805 -0.000246165 0.0
0.177728 -0.000203627 0.0
0.146528 -0.000149911 0.0
0.119135 -0.000104522 0.0
0.0970542 -6.96834e-05 0.0
0 0 0.0
0.0349417 -1.17867e-05 0.0
0.0672815 -4.08813e-05 0.0
0.152298 -0.00017066 0.0
0.178015 -0.000208487 0.0
0.210114 -0.000264036 0.0
0.244859 -0.000313216 0.0
0.24942 -0.000321801 0.0
0.232224 -0.000332828 0.0
0.244196 -0.000356923 0.0
0.249989 -0.00038116 0.0
0.249132 -0.000338279 0.0
0.235914 -0.000323831 0.0
0.212961 -0.000323109 0.0
0 0 0.0
0.0371565 -1.65592e-05 0.0
0.141106 -0.000174291 0.0
0.0999523 -0.000105156 0.0
0.0665937 -5.19829e-05 0.0
0.21363 -0.000288769 0.0
0.18661 -0.000251335 0.0
0.165087 -0.000204343 0.0
0.122244 -0.000125574 0.0
0.09287 -7.65376e-05 0.0
0 0 0.0
0.0349128 -1.31733e-05 0.0
0.0642315 -4.3452e-05 0.0
0.165594 -0.000218608 0.0
0.186965 -0.000257047 0.0
0.15812 -0.000228972 0.0
0.247092 -0.000366613 0.0
0.248692 -0.000421979 0.0
0.23105 -0.000374226 0.0
0.240525 -0.000399478 0.0
0.248757 -0.000421627 0.0
0.240204 -0.000373049 0.0
0.229258 -0.000366673 0.0
0.199179 -0.000316462 0.0
0.218632 -0.000378611 0.0
0 0 0.0
0.0346434 -1.62549e-05 0.0
0.126164 -0.000169545 0.0
0.0681714 -5.88057e-05 0.0
0.0988134 -0.000114638 0.0
0.208085 -0.000330915 0.0
0.189762 -0.000288338 0.0
0.168129 -0.000239143 0.0
0.140623 -0.000172936 0.0
0.0954136 -9.11862e-05 0.0
0 0 0.0
0.0332577 -1.34919e-05 0.0
0.0660619 -5.17928e-05 0.0
0.18322 -0.000299137 0.0
0.159258 -0.000256553 0.0
0.244899 -0.000435277 0.0
0.24966 -0.000478182 0.0
0.23596 -0.000438527 0.0
0.244857 -0.000463583 0.0
0.249378 -0.000476963 0.0
0.238622 -0.000440919 0.0
0.218422 -0.000398457 0.0
0.203101 -0.000369762 0.0
0.223368 -0.000433355 0.0
0 0 0.0
0.0477986 -3.25202e-05 0.0
0.127915 -0.000193547 0.0
0.0904167 -0.000107635 0.0
0.202611 -0.000356084 0.0
0.17797 -0.000292657 0.0
0.147891 -0.000219332 0.0
0.118724 -0.000143501 0.0
0.0780336 -7.65137e-05 0.0
0 0 0.0
0.034237 -1.59065e-05 0.0
0.187828 -0.000354687 0.0
0.160396 -0.00028575 0.0
0.246452 -0.000497994 0.0
0.25 -0.000536862 0.0
0.240138 -0.000506875 0.0
0.247576 -0.000559129 0.0
0.239861 -0.000506472 0.0
0.227294 -0.000468872 0.0
0.209732 -0.00041699 0.0
0.227721 -0.000492257 0.0
0.210287 -0.000434656 0.0
0 0 0.0
0.0478608 -3.62782e-05 0.0
0.128009 -0.000216289 0.0
0.0904978 -0.000118413 0.0
0.187174 -0.0003528 0.0
0.159623 -0.000276282 0.0
0.0472054 -3.18607e-05 0.0
0.127089 -0.000190824 0.0
0.0895961 -0.000105294 0.0
0 0 0.0
0.187903 -0.000399008 0.0
0.160485 -0.000320124 0.0
0.247421 -0.000565569 0.0
0.249999 -0.00060546 0.0
0.24017 -0.000571979 0.0
0.247593 -0.00062912 0.0
0.227248 -0.00052846 0.0
0.239829 -0.000570884 0.0
0.187098 -0.000396755 0.0
0.20967 -0.000469657 0.0
0.227762 -0.000540829 0.0
0.210351 -0.000489023 0.0
0 0 0.0
0.0479294 -3.98047e-05 0.0
0.128115 -0.000240663 0.0
0.090608 -0.000132868 0.0
0.126995 -0.000214008 0.0
0.159536 -0.000310289 0.0
0.0471473 -3.5333e-05 0.0
0.0895074 -0.000117087 0.0
0 0 0.0
0.187989 -0.000445972 0.0
0.160586 -0.000357134 0.0
0.247403 -0.000635366 0.0
0.249999 -0.000678867 0.0
0.227806 -0.000593675 0.0
0.240221 -0.000669693 0.0
0.247612 -0.000704608 0.0
0.227203 -0.000579021 0.0
0.239792 -0.00064005 0.0
0.187035 -0.00043057 0.0
0.209599 -0.000525858 0.0
0.210424 -0.000547069 0.0
0 0 0.0
0.0480097 -4.42731e-05 0.0
0.128251 -0.000270886 0.0
0.0907203 -0.000146819 0.0
0.126907 -0.000233893 0.0
0.159438 -0.000345758 0.0
0.0470768 -3.92391e-05 0.0
0.0894092 -0.000129292 0.0
0 0 0.0
0.160699 -0.000396403 0.0
0.188111 -0.000508883 0.0
0.247383 -0.000710187 0.0
0.249998 -0.000757668 0.0
0.240255 -0.000731645 0.0
0.227889 -0.000687234 0.0
0.247633 -0.000784677 0.0
0.239751 -0.000713757 0.0
0.227155 -0.000634144 0.0
0.186942 -0.000479273 0.0
0.20952 -0.000585615 0.0
0.210506 -0.000609802 0.0
0 0 0.0
0.0480906 -4.88345e-05 0.0
0.128364 -0.000295458 0.0
0.0908443 -0.000162031 0.0
0.126792 -0.000258935 0.0
0.159328 -0.00038406 0.0
0 0 0.0
0.0892995 -0.000142994 0.0
0.0470057 -4.31059e-05 0.0
0.188221 -0.000566252 0.0
0.160825 -0.000439587 0.0
0.227947 -0.000749607 0.0
0.247361 -0.000791293 0.0
0.249998 -0.000843006 0.0
0.247651 -0.000852177 0.0
0.240292 -0.000796406 0.0
0.239705 -0.000793606 0.0
0.227089 -0.000705546 0.0
0.18681 -0.000544948 0.0
0.209431 -0.00065091 0.0
0.210597 -0.000676824 0.0
0 0 0.0
0.0481827 -5.38384e-05 0.0
0.0909672 -0.0001766 0.0
0.128509 -0.000326037 0.0
0.126644 -0.000290078 0.0
0.159206 -0.000425157 0.0
0 0 0.0
0.0469205 -4.73866e-05 0.0
0.0891919 -0.000155613 0.0
0.188313 -0.000610902 0.0
0.160966 -0.000486462 0.0
0.228008 -0.000816565 0.0
0.240364 -0.000920445 0.0
0.247336 -0.000879204 0.0
0.249997 -0.000934928 0.0
0.247671 -0.00092319 0.0
0.239653 -0.000879984 0.0
0.227016 -0.000782971 0.0
0.186721 -0.000588279 0.0
0.209332 -0.000720476 0.0
0.210699 -0.000750203 0.0
0 0 0.0
0.0482853 -5.91087e-05 0.0
0.128697 -0.000365922 0.0
0.0911335 -0.000197298 0.0
0.126522 -0.000315233 0.0
0.15907 -0.000469595 0.0
0.0468354 -5.14323e-05 0.0
0 0 0.0
0.089047 -0.000172577 0.0
0.161121 -0.000537495 0.0
0.188481 -0.000691738 0.0
0.228124 -0.000935965 0.0
0.240423 -0.00102038 0.0
0.247698 -0.00102305 0.0
0.247295 -0.00101761 0.0
0.249996 -0.00103653 0.0
0.239596 -0.000975827 0.0
0.226905 -0.000896077 0.0
0.186557 -0.000665416 0.0
0.209222 -0.000797322 0.0
0.210812 -0.000829497 0.0
0 0 0.0
0.0483971 -6.48944e-05 0.0
0.0913002 -0.000216492 0.0
0.161293 -0.000591638 0.0
0.12885 -0.000396906 0.0
0.126366 -0.00034688 0.0
0.15895 -0.00050774 0.0
0.0467366 -5.67103e-05 0.0
0 0 0.0
0.0889145 -0.000188006 0.0
0.210918 -0.000902993 0.0
0.188595 -0.000746556 0.0
0.240474 -0.00110468 0.0
0.22822 -0.00103689 0.0
0.247745 -0.00118094 0.0
0.249996 -0.00114569 0.0
0.247269 -0.00109996 0.0
0.239532 -0.00107821 0.0
0.226827 -0.000972625 0.0
0.186447 -0.000716231 0.0
0.158751 -0.000570567 0.0
0.2091 -0.000879546 0.0
0 0 0.0
0.0914672 -0.000236812 0.0
0.0485286 -7.22205e-05 0.0
0.161444 -0.000641247 0.0
0.129078 -0.000445377 0.0
0.126193 -0.000381738 0.0
0 0 0.0
0.0466284 -6.21757e-05 0.0
0.0887382 -0.000208276 0.0
0.211034 -0.000980868 0.0
0.188801 -0.000845939 0.0
0.24053 -0.00119531 0.0
0.228327 -0.00114585 0.0
0.247771 -0.00127779 0.0
0.249993 -0.00126599 0.0
0.247242 -0.00119033 0.0
0.158604 -0.000613876 0.0
0.208985 -0.000955306 0.0
0.239459 -0.00118903 0.0
0.226742 -0.00105585 0.0
0.186288 -0.000789715 0.0
0 0 0.0
0.0486583 -7.88539e-05 0.0
0.0916669 -0.000260505 0.0
0.161652 -0.0007063 0.0
0.1293 -0.000491266 0.0
0.08856 -0.000227793 0.0
0.125972 -0.00042526 0.0
0 0 0.0
0.0465043 -6.8525e-05 0.0
0.211183 -0.00108221 0.0
0.188989 -0.00093394 0.0
0.240606 -0.00131921 0.0
0.228445 -0.00126535 0.0
0.247801 -0.00138122 0.0
0.249993 -0.00139854 0.0
0.247184 -0.00137042 0.0
0.158405 -0.000674642 0.0
0.239381 -0.00131251 0.0
0.208861 -0.00103487 0.0
0.22659 -0.00120581 0.0
0.186064 -0.000893094 0.0
0 0 0.0
0.0919121 -0.000290123 0.0
0.0488085 -8.68956e-05 0.0
0.161926 -0.000793253 0.0
0.129544 -0.000541751 0.0
0.0883854 -0.000247553 0.0
0.125758 -0.000467901 0.0
0 0 0.0
0.0463733 -7.51971e-05 0.0
0.189194 -0.00103148 0.0
0.211348 -0.00119445 0.0
0.240691 -0.00145718 0.0
0.247843 -0.00152158 0.0
0.228575 -0.00139584 0.0
0.24999 -0.00154045 0.0
0.24714 -0.00151448 0.0
0.239294 -0.00144514 0.0
0.249557 -0.00165066 0.0
0.158183 -0.000741083 0.0
0.226461 -0.00132976 0.0
0.208647 -0.00117287 0.0
0.185915 -0.000959446 0.0
0 0 0.0
0.0921364 -0.000317389 0.0
0.0489847 -9.69506e-05 0.0
0.162132 -0.000858796 0.0
0.129813 -0.000597453 0.0
0.0881738 -0.000271151 0.0
0.125559 -0.000506719 0.0
0 0 0.0
0.0462383 -8.20467e-05 0.0
0.189421 -0.00113776 0.0
0.211531 -0.00131803 0.0
0.24078 -0.00160557 0.0
0.228719 -0.00154145 0.0
0.247909 -0.00175489 0.0
0.249168 -0.00165065 0.0
0.243782 -0.00160205 0.0
0.233405 -0.00150457 0.0
0.249986 -0.00178527 0.0
0.15794 -0.000813828 0.0
0.218042 -0.00136192 0.0
0.20324 -0.00123091 0.0
0.185643 -0.00107904 0.0
0 0 0.0
0.0924054 -0.000350271 0.0
0.0491679 -0.000106489 0.0
0.162408 -0.000947848 0.0
0.13011 -0.000659806 0.0
0.125264 -0.00056377 0.0
0.0879409 -0.000297329 0.0
0 0 0.0
0.0460756 -8.95625e-05 0.0
0.189672 -0.00125578 0.0
0.211732 -0.00145432 0.0
0.247957 -0.00193287 0.0
0.228876 -0.00170025 0.0
0.240886 -0.00177185 0.0
0.247058 -0.00176298 0.0
0.239133 -0.00168747 0.0
0.226217 -0.00155984 0.0
0.249979 -0.00196733 0.0
0.15767 -0.000894816 0.0
0.208323 -0.00138082 0.0
0.185397 -0.00118718 0.0
0 0 0.0
0.0493611 -0.000116954 0.0
0.092703 -0.000387612 0.0
0.130387 -0.000717546 0.0
0.189948 -0.00138402 0.0
0.162716 -0.00104626 0.0
0.124979 -0.000618428 0.0
0.0876849 -0.000326064 0.0
0.0459034 -9.80963e-05 0.0
0 0 0.0
0.229019 -0.00184456 0.0
0.211954 -0.00160656 0.0
0.248002 -0.00208663 0.0
0.240996 -0.00195685 0.0
0.226048 -0.00171611 0.0
0.246995 -0.00194159 0.0
0.239014 -0.00185796 0.0
0.249975 -0.00216774 0.0
0.185129 -0.00130377 0.0
0.157312 -0.000999223 0.0
0.208033 -0.0015624 0.0
0 0 0.0
0.0495855 -0.00013002 0.0
0.0930679 -0.000432988 0.0
0.130743 -0.000791644 0.0
0.190173 -0.00149386 0.0
0.163125 -0.00118295 0.0
0.124668 -0.0006773 0.0
0.0873768 -0.000360366 0.0
0.045717 -0.000106907 0.0
0 0 0.0
0.124322 -0.000743963 0.0
0.229172 -0.00199553 0.0
0.212276 -0.00183107 0.0
0.24117 -0.00224786 0.0
0.248048 -0.00224902 0.0
0.225793 -0.00195118 0.0
0.238888 -0.00204368 0.0
0.246928 -0.00214 0.0
0.249964 -0.00238846 0.0
0.184833 -0.00143223 0.0
0.156979 -0.00110033 0.0
0.207785 -0.0017214 0.0
0 0 0.0
0.0498335 -0.000143784 0.0
0.0934372 -0.000479722 0.0
0.131137 -0.000876114 0.0
0.190503 -0.00164778 0.0
0.16351 -0.00130947 0.0
0.045509 -0.000118053 0.0
0.0870634 -0.000395954 0.0
0 0 0.0
0.124005 -0.000803265 0.0
0.229377 -0.00220639 0.0
0.212555 -0.00202428 0.0
0.24131 -0.00247985 0.0
0.248109 -0.0024828 0.0
0.225615 -0.00211284 0.0
0.238748 -0.00224812 0.0
0.249956 -0.00263321 0.0
0.246816 -0.00246185 0.0
0.184589 -0.00153429 0.0
0.156613 -0.0012085 0.0
0.20751 -0.00189098 0.0
0 0 0.0
0.0501061 -0.000158825 0.0
0.093843 -0.000530361 0.0
0.131639 -0.000983037 0.0
0.190957 -0.00186635 0.0
0.212859 -0.00224006 0.0
0.16393 -0.00145138 0.0
0.045297 -0.000128525 0.0
0.0867235 -0.000433613 0.0
0 0 0.0
0.123597 -0.00088112 0.0
0.229681 -0.00251874 0.0
0.24143 -0.00268785 0.0
0.248177 -0.00273989 0.0
0.249944 -0.00283545 0.0
0.225427 -0.00228311 0.0
0.238585 -0.00247718 0.0
0.246726 -0.00271115 0.0
0.15621 -0.00132819 0.0
0.184238 -0.00168528 0.0
0.207206 -0.00207725 0.0
0 0 0.0
0.0504287 -0.000177993 0.0
0.0942969 -0.000590243 0.0
0.132131 -0.00109286 0.0
0.191265 -0.00201743 0.0
0.213193 -0.00247521 0.0
0.164397 -0.00160928 0.0
0.0450514 -0.000140298 0.0
0.0863493 -0.000475087 0.0
0 0 0.0
0.15586 -0.00142523 0.0
0.0859408 -0.000518495 0.0
0.123079 -0.000978499 0.0
0.229935 -0.0027966 0.0
0.241556 -0.00290281 0.0
0.248281 -0.0031597 0.0
0.249936 -0.00304752 0.0
0.24665 -0.0029235 0.0
0.225175 -0.00250767 0.0
0.238338 -0.00283254 0.0
0.183748 -0.00189097 0.0
0.206924 -0.00225492 0.0
0.230164 -0.00303339 0.0
0 0 0.0
0.0507695 -0.000198272 0.0
0.132675 -0.0012166 0.0
0.0947998 -0.000658815 0.0
0.213564 -0.00274588 0.0
0.191818 -0.0022933 0.0
0.164911 -0.00178648 0.0
0.0447708 -0.000153647 0.0
0 0 0.0
0.183422 -0.00203099 0.0
0.155383 -0.00156405 0.0
0.122576 -0.00107459 0.0
0.0444722 -0.000169197 0.0
0.0854896 -0.000569156 0.0
0.241732 -0.00320938 0.0
0.248342 -0.00341387 0.0
0.249912 -0.00335982 0.0
0.249895 -0.00361872 0.0
0.246562 -0.00314891 0.0
0.22489 -0.00275789 0.0
0.238126 -0.00311753 0.0
0.206615 -0.00243555 0.0
0.2304 -0.00329546 0.0
0.0511329 -0.000221765 0.0
0 0 0.0
0.133183 -0.00133156 0.0
0.0953562 -0.000734388 0.0
0.213967 -0.00304494 0.0
0.19219 -0.00248344 0.0
0.165482 -0.00198844 0.0
0 0 0.0
0.182954 -0.00222174 0.0
0.15475 -0.00174254 0.0
0.122117 -0.00115547 0.0
0.0441674 -0.00018412 0.0
0.0849986 -0.000622469 0.0
0.241993 -0.00369637 0.0
0.248406 -0.00368032 0.0
0.249869 -0.00389066 0.0
0.246382 -0.00361096 0.0
0.224582 -0.0030265 0.0
0.237901 -0.00342797 0.0
0.206094 -0.00274945 0.0
0.230725 -0.00365445 0.0
0 0 0.0
0.0515558 -0.000249973 0.0
0.133839 -0.00148749 0.0
0.0959184 -0.00081478 0.0
0.166111 -0.00221278 0.0
0.214411 -0.00338479 0.0
0.192865 -0.0028317 0.0
0 0 0.0
0 0 0.0
0.182435 -0.00243495 0.0
0.154163 -0.00191039 0.0
0.121525 -0.00126517 0.0
0.0844616 -0.000680069 0.0
0.043816 -0.000200317 0.0
0.2422 -0.00408973 0.0
0.248484 -0.0040658 0.0
0.237697 -0.00369589 0.0
0.249832 -0.00428567 0.0
0.24623 -0.00397907 0.0
0.224235 -0.00332509 0.0
0.205639 -0.00301199 0.0
0.242371 -0.00444002 0.0
0.231061 -0.00405432 0.0
0.052026 -0.000279212 0.0
0.0966012 -0.00090939 0.0
0.134574 -0.00166996 0.0
0.166666 -0.00242312 0.0
0.214898 -0.00376228 0.0
0.193313 -0.00308271 0.0
0 0 0.0
0 0 0.0
0.153656 -0.00204404 0.0
0.181718 -0.00271736 0.0
0.0839342 -0.000732919 0.0
0.120778 -0.00139824 0.0
0.043431 -0.000219591 0.0
0.248607 -0.00468083 0.0
0.249774 -0.00472592 0.0
0.205143 -0.00329665 0.0
0.237472 -0.0039771 0.0
0.246102 -0.00428853 0.0
0.223707 -0.00376228 0.0
0.242555 -0.00480561 0.0
0.231577 -0.00466956 0.0
0.215422 -0.00419184 0.0
0.0525892 -0.000317074 0.0
0.0973723 -0.00102881 0.0
0.135519 -0.00191374 0.0
0.167425 -0.00270834 0.0
0.194128 -0.00354319 0.0
0 0 0.0
0 0 0.0
0.152822 -0.00226555 0.0
0.181077 -0.00297213 0.0
0.0832342 -0.000805481 0.0
0.120063 -0.00152053 0.0
0.0429948 -0.000238202 0.0
0.245956 -0.00461824 0.0
0.249706 -0.00519902 0.0
0.248677 -0.00517635 0.0
0.204595 -0.00360158 0.0
0.237168 -0.0043661 0.0
0.223264 -0.00413062 0.0
0.180374 -0.00324036 0.0
0.242879 -0.0055364 0.0
0 0 0.0
0.231969 -0.00520447 0.0
0.194855 -0.00397842 0.0
0.215986 -0.00467247 0.0
0.0531767 -0.000362232 0.0
0.136308 -0.00213297 0.0
0.0983401 -0.00119423 0.0
0.168436 -0.00313474 0.0
0 0 0.0
0 0 0.0
0 0 0.0
0 0 0.0
0 0 0.0
0.0425644 -0.000255658 0.0
0.119279 -0.00165434 0.0
0.152053 -0.00246825 0.0
0.0826105 -0.000867905 0.0
0.245741 -0.00506523 0.0
0.249612 -0.00572164 0.0
0.248749 -0.00571974 0.0
0.22286 -0.00443751 0.0
0.203985 -0.00393014 0.0
0.236664 -0.00495737 0.0
0.203424 -0.00422483 0.0
0.179802 -0.0034468 0.0
0.243109 -0.00614164 0.0
0.232392 -0.00578602 0.0
0 0 0.0
8.36719e-05 -4.02836e-05 0.0
0 0 0.0
-0.000162879 0.000511553 0.0
0.2166 -0.00522656 0.0
0.19545 -0.00434233 0.0
0.0539109 -0.000423092 0.0
0.137331 -0.00242675 0.0
0.0993445 -0.0013785 0.0
0.169393 -0.00355921 0.0
0 0 0.0
0 0 0.0
0 0 0.0
-0.000103892 0.00011813 0.0
2.93133e-05 -0.000183687 0.0
0.000129197 -0.000143757 0.0
0 0 0.0
0.0420712 -0.000277708 0.0
0.118566 -0.00176831 0.0
0.151214 -0.00267734 0.0
0.0817861 -0.0009451 0.0
0.245499 -0.00556279 0.0
0.24949 -0.00628916 0.0
0.248803 -0.00631005 0.0
0.222421 -0.00476965 0.0
0.236342 -0.00533736 0.0
0.202809 -0.00452698 0.0
0.178762 -0.00380983 0.0
0.243345 -0.00680144 0.0
0.235904 -0.00650223 0.0
0.225596 -0.00607692 0.0
0 0 0.0
0.000197958 -4.35108e-05 0.0
0 0 0.0
0 0 0.0
-0.000621051 0.00155664 0.0
-0.000514301 0.000781872 0.0
0.212401 -0.00556242 0.0
0.196285 -0.0049001 0.0
0.100374 -0.00158222 0.0
0.0546926 -0.000503136 0.0
0.138477 -0.00279309 0.0
0.170429 -0.00405903 0.0
0 0 0.0
-8.3902e-05 -0.00014457 0.0
-0.000281689 0.000181053 0.0
4.33785e-05 -0.000185705 0.0
0.000174764 -7.77981e-05 0.0
0 0 0.0
0.041541 -0.000299541 0.0
0.11766 -0.00190799 0.0
0.150304 -0.00288821 0.0
0.0809684 -0.00101893 0.0
0.245209 -0.00609383 0.0
0.249338 -0.00690271 0.0
0.248835 -0.00695539 0.0
0.221614 -0.0053584 0.0
0.235978 -0.00572466 0.0
0.202019 -0.00491007 0.0
0.149308 -0.00311962 0.0
0.177837 -0.00412306 0.0
0.243524 -0.00736984 0.0
0.233115 -0.00691763 0.0
0.217716 -0.00636188 0.0
0 0 0.0
0.000244649 1.54304e-06 0.0
0 0 0.0
0 0 0.0
0 0 0.0
0 0 0.0
-0.000843846 0.000882711 0.0
-0.000205415 0.00154112 0.0
-0.000693365 0.00228442 0.0
-0.0015547 0.00315437 0.0
-0.00117408 0.00186391 0.0
0 0 0.0
-0.000107676 0.00316639 0.0
0.197402 -0.00574485 0.0
0.171326 -0.00454728 0.0
0 0 0.0
0.0557092 -0.000621184 0.0
0.101676 -0.00187609 0.0
0.139964 -0.00336527 0.0
0 0 0.0
0 0 0.0
-0.000362137 0.000213913 0.0
-0.000118494 5.87103e-05 0.0