# vtk DataFile Version 3.0
Mesh NS-CD Problem
ASCII
DATASET UNSTRUCTURED_GRID
POINTS 10839 float
-2 0.3 0.0
-2 0.4 0.0
-2 0.35 0.0
-2 0.45 0.0
-2 0.5 0.0
-2 0.55 0.0
-2 0 0.0
-2 0.05 0.0
-2 0.85 0.0
-2 0.9 0.0
-2 0.1 0.0
-2 0.15 0.0
-2 0.25 0.0
-2 0.2 0.0
-1.96653 0.266667 0.0
-1.96524 0.415385 0.0
-1.96485 0.315 0.0
-1.96348 0.363636 0.0
-1.96414 0.464286 0.0
-2 0.6 0.0
-1.96538 0.584615 0.0
-1.96538 0.538462 0.0
-1.94979 0 0.0
-1.96653 0.0666666 0.0
-1.93306 0.0333333 0.0
-2 0.8 0.0
-2 0.75 0.0
-2 0.7 0.0
-2 0.65 0.0
-1.96249 0.7375 0.0
-1.96666 0.833333 0.0
-2 1 0.0
-2 0.95 0.0
-1.96249 0.8875 0.0
-1.96666 0.933333 0.0
-1.96234 0.1125 0.0
-1.96653 0.166667 0.0
-1.93724 0.225 0.0
-1.92971 0.28 0.0
-1.93048 0.380769 0.0
-1.93048 0.423077 0.0
-1.89958 0.3375 0.0
-1.9292 0.484203 0.0
-1.92117 0.530907 0.0
-1.96363 0.636364 0.0
-1.93076 0.576923 0.0
-1.89958 0 0.0
-1.88703 0.0375 0.0
-1.90963 0.08 0.0
-1.86611 0.0666666 0.0
-1.93749 0.775 0.0
-1.93635 0.672727 0.0
-1.92999 0.72 0.0
-1.93332 0.866667 0.0
-1.92856 0.821429 0.0
-1.94999 1 0.0
-1.92499 0.9625 0.0
-1.92499 0.925 0.0
-1.89998 0.9 0.0
-1.89958 0.125 0.0
-1.92827 0.178571 0.0
-1.89958 0.233333 0.0
-1.89045 0.290909 0.0
-1.86096 0.311538 0.0
-1.89241 0.392857 0.0
-1.89334 0.448489 0.0
-1.85655 0.357143 0.0
-1.89614 0.653846 0.0
-1.89427 0.504121 0.0
-1.8952 0.559753 0.0
-1.89614 0.615385 0.0
-1.84937 0 0.0
-1.83264 0.0333333 0.0
-1.85655 0.107143 0.0
-1.81172 0.075 0.0
-1.89998 0.766667 0.0
-1.89089 0.709091 0.0
-1.87498 0.85 0.0
-1.85998 0.79 0.0
-1.88748 0.8125 0.0
-1.89998 1 0.0
-1.88748 0.9625 0.0
-1.86664 0.933333 0.0
-1.85712 0.892857 0.0
-1.87448 0.15 0.0
-1.86611 0.194444 0.0
-1.83264 0.133333 0.0
-1.83264 0.2625 0.0
-1.82068 0.321429 0.0
-1.85664 0.404762 0.0
-1.85674 0.452381 0.0
-1.85683 0.5 0.0
-1.81184 0.375 0.0
-1.85712 0.642857 0.0
-1.85693 0.547619 0.0
-1.85702 0.595238 0.0
-1.79917 0 0.0
-1.78482 0.0357143 0.0
-1.79917 0.116667 0.0
-1.76569 0.0666666 0.0
-1.85452 0.745455 0.0
-1.82689 0.692308 0.0
-1.81815 0.781818 0.0
-1.82497 0.825 0.0
-1.84997 1 0.0
-1.8333 0.958333 0.0
-1.81247 0.8875 0.0
-1.81247 0.925 0.0
-1.81742 0.218182 0.0
-1.82427 0.175 0.0
-1.77634 0.145455 0.0
-1.79144 0.242308 0.0
-1.78482 0.285714 0.0
-1.77469 0.332653 0.0
-1.81215 0.529762 0.0
-1.81194 0.422619 0.0
-1.81203 0.470238 0.0
-1.76714 0.392857 0.0
-1.81234 0.625 0.0
-1.79732 0.571429 0.0
-1.74896 0 0.0
-1.73222 0.0333333 0.0
-1.75398 0.105 0.0
-1.71883 0.07 0.0
-1.79227 0.730769 0.0
-1.78007 0.679121 0.0
-1.75765 0.769231 0.0
-1.78178 0.818182 0.0
-1.78996 0.86 0.0
-1.79996 1 0.0
-1.78568 0.964286 0.0
-1.76663 0.922222 0.0
-1.76569 0.1875 0.0
-1.73222 0.15 0.0
-1.74896 0.25 0.0
-1.73714 0.304762 0.0
-1.76743 0.537202 0.0
-1.72869 0.343878 0.0
-1.76732 0.485119 0.0
-1.76723 0.440476 0.0
-1.72243 0.410714 0.0
-1.76757 0.607143 0.0
-1.69875 0 0.0
-1.68369 0.035 0.0
-1.69875 0.1125 0.0
-1.66528 0.075 0.0
-1.74341 0.708974 0.0
-1.73324 0.665934 0.0
-1.70441 0.74478 0.0
-1.71423 0.785714 0.0
-1.72303 0.826923 0.0
-1.74541 0.854545 0.0
-1.74541 0.890909 0.0
-1.74996 1 0.0
-1.73745 0.9625 0.0
-1.71359 0.927273 0.0
-1.68716 0.153846 0.0
-1.7131 0.214286 0.0
-1.70725 0.275 0.0
-1.69712 0.321939 0.0
-1.72279 0.589286 0.0
-1.72261 0.5 0.0
-1.7227 0.544643 0.0
-1.6827 0.355102 0.0
-1.67773 0.428571 0.0
-1.70763 0.464286 0.0
-1.70369 0.62449 0.0
-1.64854 0 0.0
-1.63181 0.0375 0.0
-1.64137 0.142857 0.0
-1.61764 0.0769231 0.0
-1.69458 0.703846 0.0
-1.67471 0.657437 0.0
-1.66143 0.727637 0.0
-1.67125 0.768571 0.0
-1.67851 0.821429 0.0
-1.68841 0.861538 0.0
-1.70904 0.890909 0.0
-1.69995 1 0.0
-1.68176 0.963636 0.0
-1.67267 0.927273 0.0
-1.65427 0.187143 0.0
-1.66718 0.231429 0.0
-1.66554 0.3 0.0
-1.67802 0.571429 0.0
-1.67792 0.523809 0.0
-1.6367 0.366327 0.0
-1.63682 0.423469 0.0
-1.62568 0.502976 0.0
-1.6629 0.470238 0.0
-1.65254 0.618367 0.0
-1.6059 0.307143 0.0
-1.59833 0 0.0
-1.58288 0.0384615 0.0
-1.60563 0.169643 0.0
-1.58179 0.112271 0.0
-1.56964 0.0714286 0.0
-1.64574 0.690385 0.0
-1.62827 0.751429 0.0
-1.63371 0.791071 0.0
-1.64279 0.857143 0.0
-1.65378 0.896154 0.0
-1.64994 1 0.0
-1.6363 0.963636 0.0
-1.61916 0.930769 0.0
-1.61345 0.209107 0.0
-1.62126 0.248571 0.0
-1.56989 0.196429 0.0
-1.63324 0.553571 0.0
-1.58846 0.535714 0.0
-1.59408 0.361905 0.0
-1.59161 0.402211 0.0
-1.58832 0.464286 0.0
-1.61504 0.598581 0.0
-1.59683 0.64359 0.0
-1.57899 0.274107 0.0
-1.56176 0.322381 0.0
-1.54812 0 0.0
-1.53378 0.0357143 0.0
-1.54593 0.147619 0.0
-1.53385 0.0732143 0.0
-1.53393 0.110714 0.0
-1.58522 0.704286 0.0
-1.58709 0.745 0.0
-1.58896 0.785714 0.0
-1.60695 0.830357 0.0
-1.60707 0.892857 0.0
-1.59993 1 0.0
-1.58454 0.965385 0.0
-1.57135 0.928571 0.0
-1.55209 0.241071 0.0
-1.5291 0.198214 0.0
-1.56936 0.570918 0.0
-1.54369 0.517857 0.0
-1.5464 0.380952 0.0
-1.54564 0.427721 0.0
-1.54488 0.47449 0.0
-1.55026 0.606122 0.0
-1.54222 0.677143 0.0
-1.52943 0.282857 0.0
-1.52143 0.33619 0.0
-1.49792 0 0.0
-1.49802 0.05 0.0
-1.49822 0.15 0.0
-1.49312 0.1 0.0
-1.5423 0.717143 0.0
-1.54419 0.767857 0.0
-1.54727 0.819048 0.0
-1.57122 0.861905 0.0
-1.53553 0.914286 0.0
-1.54992 1 0.0
-1.53563 0.964286 0.0
-1.49842 0.25 0.0
-1.48831 0.2 0.0
-1.5214 0.558929 0.0
-1.49891 0.5 0.0
-1.49871 0.4 0.0
-1.47631 0.45 0.0
-1.49911 0.6 0.0
-1.49921 0.65 0.0
-1.49931 0.7 0.0
-1.48111 0.35 0.0
-1.48351 0.3 0.0
-1.44771 0 0.0
-1.44782 0.05 0.0
-1.44804 0.15 0.0
-1.44793 0.1 0.0
-1.49941 0.75 0.0
-1.49951 0.8 0.0
-1.49981 0.95 0.0
-1.49961 0.85 0.0
-1.49971 0.9 0.0
-1.49991 1 0.0
-1.44826 0.25 0.0
-1.43815 0.2 0.0
-1.47151 0.55 0.0
-1.44881 0.5 0.0
-1.44859 0.4 0.0
-1.42619 0.45 0.0
-1.44913 0.65 0.0
-1.44902 0.6 0.0
-1.44935 0.75 0.0
-1.44924 0.7 0.0
-1.43972 0.35 0.0
-1.43336 0.3 0.0
-1.3975 0 0.0
-1.39762 0.05 0.0
-1.39786 0.15 0.0
-1.39274 0.1 0.0
-1.44957 0.85 0.0
-1.44946 0.8 0.0
-1.4523 0.95 0.0
-1.44968 0.9 0.0
-1.4499 1 0.0
-1.3981 0.25 0.0
-1.38798 0.2 0.0
-1.42141 0.55 0.0
-1.3987 0.5 0.0
-1.39834 0.35 0.0
-1.37845 0.4 0.0
-1.37607 0.45 0.0
-1.40784 0.65 0.0
-1.39894 0.6 0.0
-1.41185 0.75 0.0
-1.39918 0.7 0.0
-1.38322 0.3 0.0
-1.34729 0 0.0
-1.34492 0.05 0.0
-1.34018 0.15 0.0
-1.34255 0.1 0.0
-1.40707 0.85 0.0
-1.39941 0.8 0.0
-1.39977 0.95 0.0
-1.39965 0.9 0.0
-1.39989 1 0.0
-1.33781 0.2 0.0
-1.33544 0.25 0.0
-1.37131 0.55 0.0
-1.34859 0.5 0.0
-1.33833 0.4 0.0
-1.3307 0.35 0.0
-1.32595 0.45 0.0
-1.34885 0.6 0.0
-1.36655 0.65 0.0
-1.36179 0.75 0.0
-1.34911 0.7 0.0
-1.33307 0.3 0.0
-1.29708 0 0.0
-1.29722 0.05 0.0
-1.2975 0.15 0.0
-1.29236 0.1 0.0
-1.35703 0.85 0.0
-1.34937 0.8 0.0
-1.34988 1 0.0
-1.34962 0.9 0.0
-1.35226 0.95 0.0
-1.28528 0.25 0.0
-1.28764 0.2 0.0
-1.28931 0.35 0.0
-1.32121 0.55 0.0
-1.29848 0.5 0.0
-1.28709 0.45 0.0
-1.2982 0.4 0.0
-1.29876 0.6 0.0
-1.31647 0.65 0.0
-1.29918 0.75 0.0
-1.29904 0.7 0.0
-1.28292 0.3 0.0
-1.24687 0 0.0
-1.24702 0.05 0.0
-1.24717 0.1 0.0
-1.24732 0.15 0.0
-1.29946 0.85 0.0
-1.29932 0.8 0.0
-1.29987 1 0.0
-1.29974 0.95 0.0
-1.30462 0.9 0.0
-1.24762 0.25 0.0
-1.23747 0.2 0.0
-1.24792 0.35 0.0
-1.22807 0.4 0.0
-1.27111 0.55 0.0
-1.24837 0.5 0.0
-1.24822 0.45 0.0
-1.24867 0.6 0.0
-1.26639 0.65 0.0
-1.26167 0.75 0.0
-1.24897 0.7 0.0
-1.23277 0.3 0.0
-1.19667 0 0.0
-1.19683 0.05 0.0
-1.18964 0.15 0.0
-1.19198 0.1 0.0
-1.25695 0.85 0.0
-1.24927 0.8 0.0
-1.25223 0.95 0.0
-1.24987 1 0.0
-1.24957 0.9 0.0
-1.1873 0.2 0.0
-1.18496 0.25 0.0
-1.18028 0.35 0.0
-1.17794 0.4 0.0
-1.1981 0.45 0.0
-1.19842 0.55 0.0
-1.19826 0.5 0.0
-1.19858 0.6 0.0
-1.19874 0.65 0.0
-1.19906 0.75 0.0
-1.1989 0.7 0.0
-1.18262 0.3 0.0
-1.14646 0 0.0
-1.14663 0.05 0.0
-1.1418 0.1 0.0
-1.13713 0.2 0.0
-1.14697 0.15 0.0
-1.20691 0.85 0.0
-1.20926 0.8 0.0
-1.20221 0.95 0.0
-1.19986 1 0.0
-1.20456 0.9 0.0
-1.13997 0.3 0.0
-1.14731 0.25 0.0
-1.13781 0.4 0.0
-1.13014 0.35 0.0
-1.12548 0.45 0.0
-1.14815 0.5 0.0
-1.15962 0.55 0.0
-1.14849 0.6 0.0
-1.15745 0.65 0.0
-1.16155 0.75 0.0
-1.14917 0.8 0.0
-1.14883 0.7 0.0
-1.09625 0 0.0
-1.09661 0.1 0.0
-1.09393 0.05 0.0
-1.09697 0.2 0.0
-1.08929 0.15 0.0
-1.15687 0.85 0.0
-1.14985 1 0.0
-1.15219 0.95 0.0
-1.14951 0.9 0.0
-1.09733 0.3 0.0
-1.08465 0.25 0.0
-1.09769 0.4 0.0
-1.08 0.35 0.0
-1.08661 0.45 0.0
-1.09804 0.5 0.0
-1.12082 0.55 0.0
-1.10916 0.8 0.0
-1.10629 0.7 0.0
-1.0984 0.6 0.0
-1.11616 0.65 0.0
-1.11149 0.75 0.0
-1.04604 0 0.0
-1.04623 0.05 0.0
-1.04642 0.1 0.0
-1.0468 0.2 0.0
-1.03911 0.15 0.0
-1.09948 0.9 0.0
-1.0993 0.85 0.0
-1.09984 1 0.0
-1.09966 0.95 0.0
-1.04718 0.3 0.0
-1.03449 0.25 0.0
-1.04756 0.4 0.0
-1.02986 0.35 0.0
-1.04775 0.45 0.0
-1.04794 0.5 0.0
-1.04813 0.55 0.0
-1.05911 0.8 0.0
-1.04831 0.6 0.0
-1.06376 0.7 0.0
-1.0485 0.65 0.0
-1.04888 0.75 0.0
-0.995833 0 0.0
-0.991231 0.1 0.0
-0.996033 0.05 0.0
-0.986629 0.2 0.0
-0.98893 0.15 0.0
-1.05447 0.9 0.0
-1.04926 0.85 0.0
-1.04983 1 0.0
-1.04964 0.95 0.0
-0.984328 0.25 0.0
-0.99703 0.3 0.0
-0.997429 0.4 0.0
-0.997628 0.45 0.0
-0.979726 0.35 0.0
-0.997827 0.5 0.0
-0.998027 0.55 0.0
-0.998226 0.6 0.0
-0.961416 0.475 0.0
-1.00907 0.8 0.0
-0.998426 0.65 0.0
-0.998625 0.7 0.0
-1.01138 0.75 0.0
-0.945625 0 0.0
-0.946044 0.1 0.0
-0.943334 0.05 0.0
-0.946463 0.2 0.0
-0.938752 0.15 0.0
-1.00444 0.9 0.0
-1.00675 0.85 0.0
-0.999821 1 0.0
-1.00213 0.95 0.0
-0.93417 0.25 0.0
-0.946881 0.3 0.0
-0.9473 0.4 0.0
-0.929588 0.35 0.0
-0.925005 0.45 0.0
-0.960371 0.525 0.0
-0.959325 0.575 0.0
-0.958279 0.625 0.0
-0.922714 0.5 0.0
-0.959017 0.8 0.0
-0.957233 0.675 0.0
-0.952999 0.7125 0.0
-0.948766 0.75 0.0
-0.895417 0 0.0
-0.895855 0.1 0.0
-0.893136 0.05 0.0
-0.896294 0.2 0.0
-0.888573 0.15 0.0
-0.949184 0.85 0.0
-0.954415 0.9 0.0
-0.949812 1 0.0
-0.949603 0.95 0.0
-0.884011 0.25 0.0
-0.896733 0.3 0.0
-0.874887 0.45 0.0
-0.879449 0.35 0.0
-0.897171 0.4 0.0
-0.920423 0.55 0.0
-0.918132 0.6 0.0
-0.915841 0.65 0.0
-0.872606 0.5 0.0
-0.908968 0.8 0.0
-0.91355 0.7 0.0
-0.898707 0.75 0.0
-0.845208 0 0.0
-0.845438 0.05 0.0
-0.845667 0.1 0.0
-0.845896 0.15 0.0
-0.833853 0.25 0.0
-0.846126 0.2 0.0
-0.899146 0.85 0.0
-0.904386 0.9 0.0
-0.899584 0.95 0.0
-0.899804 1 0.0
-0.838062 0.35 0.0
[...]
POINT_DATA 10839
VECTORS Velocity float
0.21 0 0.0
0.24 0 0.0
0.2275 0 0.0
0.2475 0 0.0
0.25 0 0.0
0.2475 0 0.0
0 0 0.0
0.0475 0 0.0
0.1275 0 0.0
0.09 0 0.0
0.09 0 0.0
0.1275 0 0.0
0.1875 0 0.0
0.16 0 0.0
0.195557 -2.38653e-05 0.0
0.242841 -3.24289e-05 0.0
0.215776 -2.83552e-05 0.0
0.231406 -3.19249e-05 0.0
0.248725 -3.45066e-05 0.0
0.24 0 0.0
0.24284 -3.23439e-05 0.0
0.24852 -3.32296e-05 0.0
0 0 0.0
0.0622239 -4.23743e-06 0.0
0.032227 -2.80195e-06 0.0
0.16 0 0.0
0.1875 0 0.0
0.21 0 0.0
0.2275 0 0.0
0.193592 -2.6768e-05 0.0
0.138887 -1.49586e-05 0.0
0 0 0.0
0.0475 0 0.0
0.0998415 -1.04459e-05 0.0
0.0622205 -4.28701e-06 0.0
0.0998462 -1.09099e-05 0.0
0.138891 -1.50911e-05 0.0
0.17438 -3.76047e-05 0.0
0.201605 -5.13725e-05 0.0
0.235787 -6.25697e-05 0.0
0.244085 -6.54293e-05 0.0
0.223602 -8.37878e-05 0.0
0.249751 -6.8321e-05 0.0
0.249044 -7.60832e-05 0.0
0.231404 -3.24197e-05 0.0
0.244081 -6.46335e-05 0.0
0 0 0.0
0.0361082 -5.38318e-06 0.0
0.0736126 -1.4994e-05 0.0
0.062249 -1.63918e-05 0.0
0.17437 -3.70397e-05 0.0
0.220162 -5.12785e-05 0.0
0.201594 -5.14115e-05 0.0
0.115549 -2.23458e-05 0.0
0.146676 -3.44762e-05 0.0
0 0 0.0
0.0360873 -3.6462e-06 0.0
0.0693661 -1.1763e-05 0.0
0.0899836 -2.32083e-05 0.0
0.109391 -3.13065e-05 0.0
0.146691 -3.38162e-05 0.0
0.178902 -6.28638e-05 0.0
0.206293 -8.19988e-05 0.0
0.2145 -0.000110244 0.0
0.238527 -9.78395e-05 0.0
0.24735 -0.000101821 0.0
0.229607 -0.000124339 0.0
0.226324 -8.79367e-05 0.0
0.249983 -0.000102296 0.0
0.246426 -9.9529e-05 0.0
0.23668 -9.37527e-05 0.0
0 0 0.0
0.0322506 -6.06495e-06 0.0
0.0956963 -3.54728e-05 0.0
0.0694288 -2.67137e-05 0.0
0.178876 -6.18686e-05 0.0
0.206269 -8.25443e-05 0.0
0.127476 -4.7814e-05 0.0
0.165874 -7.81374e-05 0.0
0.152326 -5.61409e-05 0.0
0 0 0.0
0.0360795 -5.21887e-06 0.0
0.0621958 -1.62349e-05 0.0
0.0956303 -3.61669e-05 0.0
0.127524 -4.8282e-05 0.0
0.156661 -6.99489e-05 0.0
0.1156 -5.53115e-05 0.0
0.193626 -0.000114851 0.0
0.218141 -0.000145066 0.0
0.240939 -0.000132393 0.0
0.247737 -0.000137235 0.0
0.25 -0.000138692 0.0
0.234397 -0.000167713 0.0
0.229577 -0.00012251 0.0
0.247727 -0.000136882 0.0
0.24092 -0.000132065 0.0
0 0 0.0
0.0344871 -8.36943e-06 0.0
0.10312 -5.42624e-05 0.0
0.0623022 -2.7023e-05 0.0
0.189727 -9.76711e-05 0.0
0.212989 -0.000135987 0.0
0.170535 -0.000105627 0.0
0.14433 -7.85608e-05 0.0
0 0 0.0
0.0398981 -8.94166e-06 0.0
0.0997871 -4.94203e-05 0.0
0.0693216 -2.63114e-05 0.0
0.170623 -0.000105855 0.0
0.14442 -8.03263e-05 0.0
0.124376 -8.1294e-05 0.0
0.183648 -0.000133523 0.0
0.20413 -0.000159656 0.0
0.222037 -0.000187736 0.0
0.249109 -0.000181607 0.0
0.244026 -0.000176899 0.0
0.249119 -0.000181671 0.0
0.23855 -0.000212972 0.0
0.234353 -0.000166536 0.0
0.244883 -0.000191263 0.0
0 0 0.0
0.0322915 -8.84675e-06 0.0
0.0940726 -5.69452e-05 0.0
0.0652158 -3.40928e-05 0.0
0.196697 -0.000145692 0.0
0.217872 -0.000178691 0.0
0.17744 -0.000147679 0.0
0.148691 -0.000103412 0.0
0.12033 -7.26108e-05 0.0
0 0 0.0
0.0343909 -8.47633e-06 0.0
0.0716452 -3.43022e-05 0.0
0.152423 -0.000115967 0.0
0.127612 -0.000100687 0.0
0.187576 -0.000165171 0.0
0.211949 -0.000205438 0.0
0.248605 -0.000224868 0.0
0.225684 -0.000232533 0.0
0.249782 -0.000226574 0.0
0.246473 -0.000222852 0.0
0.242063 -0.000260309 0.0
0.238491 -0.000212091 0.0
0 0 0.0
0.0338734 -1.10643e-05 0.0
0.0999901 -7.58079e-05 0.0
0.0695422 -4.53002e-05 0.0
0.206262 -0.000191999 0.0
0.222406 -0.000223561 0.0
0.189978 -0.00019915 0.0
0.168257 -0.000161135 0.0
0.143006 -0.000123893 0.0
0.124196 -9.17113e-05 0.0
0.0970859 -6.17898e-05 0.0
0 0 0.0
0.0360212 -1.0767e-05 0.0
0.0673166 -3.67043e-05 0.0
0.130331 -0.000121406 0.0
0.16848 -0.000162255 0.0
0.19947 -0.00021141 0.0
0.218376 -0.000247827 0.0
0.241993 -0.000260535 0.0
0.25 -0.000272105 0.0
0.247989 -0.00026884 0.0
0.229079 -0.000279342 0.0
0.244936 -0.000309286 0.0
0.24874 -0.000285435 0.0
0.234447 -0.000266633 0.0
0 0 0.0
0.036231 -1.42419e-05 0.0
0.122654 -0.000124181 0.0
0.071225 -5.35038e-05 0.0
0.208352 -0.000234104 0.0
0.225129 -0.000278163 0.0
0.198052 -0.000242642 0.0
0.177729 -0.00020125 0.0
0.14653 -0.000148795 0.0
0.119136 -0.000104303 0.0
0.0970539 -6.9967e-05 0.0
0 0 0.0
0.0349394 -1.2042e-05 0.0
0.0672802 -4.12633e-05 0.0
0.152297 -0.000169292 0.0
0.178014 -0.000206665 0.0
0.210113 -0.000261153 0.0
0.244859 -0.000308654 0.0
0.24942 -0.000317234 0.0
0.232222 -0.000327959 0.0
0.244195 -0.000351352 0.0
0.249988 -0.00037427 0.0
0.249131 -0.000333346 0.0
0.235915 -0.000318395 0.0
0.212958 -0.000318264 0.0
0 0 0.0
0.0371591 -1.67624e-05 0.0
0.141104 -0.00017254 0.0
0.0999507 -0.000104583 0.0
0.0665943 -5.21272e-05 0.0
0.213632 -0.000283957 0.0
0.186612 -0.0002472 0.0
0.16509 -0.000201477 0.0
0.122246 -0.000124753 0.0
0.0928702 -7.66063e-05 0.0
0 0 0.0
0.0349102 -1.34295e-05 0.0
0.0642302 -4.37846e-05 0.0
0.165592 -0.000216047 0.0
0.186963 -0.000253818 0.0
0.158116 -0.000225828 0.0
0.247092 -0.000359947 0.0
0.248691 -0.000412949 0.0
0.231048 -0.000367881 0.0
0.240522 -0.000392264 0.0
0.248755 -0.000413223 0.0
0.240205 -0.000365599 0.0
0.22926 -0.000358671 0.0
0.199176 -0.000311525 0.0
0.218628 -0.00037192 0.0
0 0 0.0
0.0346463 -1.64416e-05 0.0
0.126161 -0.000167545 0.0
0.0681714 -5.88261e-05 0.0
0.0988106 -0.000113755 0.0
0.208089 -0.000323605 0.0
0.189766 -0.00028244 0.0
0.168133 -0.000234797 0.0
0.140626 -0.000170727 0.0
0.0954149 -9.09408e-05 0.0
0 0 0.0
0.0332546 -1.37314e-05 0.0
0.0660611 -5.20748e-05 0.0
0.183216 -0.000294269 0.0
0.159253 -0.000252527 0.0
0.2449 -0.000425031 0.0
0.249659 -0.000466582 0.0
0.235956 -0.000429828 0.0
0.244854 -0.000453744 0.0
0.249376 -0.000466185 0.0
0.238623 -0.000429635 0.0
0.218427 -0.000387963 0.0
0.203097 -0.000363109 0.0
0.223364 -0.000424934 0.0
0 0 0.0
0.0478006 -3.26758e-05 0.0
0.127909 -0.000190754 0.0
0.0904133 -0.000106775 0.0
0.202616 -0.000347014 0.0
0.177976 -0.000285912 0.0
0.147898 -0.000215348 0.0
0.118728 -0.000141893 0.0
0.0780348 -7.65437e-05 0.0
0 0 0.0
0.0342336 -1.61721e-05 0.0
0.187822 -0.000348207 0.0
0.16039 -0.00028083 0.0
0.246453 -0.000484634 0.0
0.249997 -0.000522742 0.0
0.240133 -0.000495619 0.0
0.247572 -0.000545072 0.0
0.239863 -0.000491522 0.0
0.227298 -0.000454702 0.0
0.209738 -0.000404642 0.0
0.227716 -0.000482095 0.0
0.210281 -0.000426193 0.0
0 0 0.0
0.0478623 -3.63266e-05 0.0
0.128001 -0.000212547 0.0
0.0904928 -0.00011707 0.0
0.187182 -0.000343075 0.0
0.159632 -0.000269831 0.0
0.0472027 -3.22271e-05 0.0
0.127097 -0.000187699 0.0
0.0896 -0.000104872 0.0
0 0 0.0
0.187896 -0.000391407 0.0
0.160477 -0.000314216 0.0
0.24742 -0.000548633 0.0
0.249995 -0.000588097 0.0
0.240164 -0.000558779 0.0
0.247587 -0.000612594 0.0
0.227253 -0.000510207 0.0
0.239831 -0.000551836 0.0
0.18711 -0.000384292 0.0
0.209679 -0.000453725 0.0
0.227754 -0.000529474 0.0
0.210344 -0.000479593 0.0
0 0 0.0
0.0479297 -3.94076e-05 0.0
0.128104 -0.000235708 0.0
0.0906003 -0.000130381 0.0
0.127006 -0.000210517 0.0
0.159549 -0.000302307 0.0
0.0471445 -3.59367e-05 0.0
0.0895134 -0.000116906 0.0
0 0 0.0
0.18798 -0.000437714 0.0
0.160577 -0.000350336 0.0
0.247402 -0.00061434 0.0
0.249993 -0.000658089 0.0
0.227797 -0.000581614 0.0
0.240211 -0.000654554 0.0
0.247602 -0.000685952 0.0
0.22721 -0.000556804 0.0
0.239795 -0.000616184 0.0
0.18705 -0.000415808 0.0
0.209611 -0.000505705 0.0
0.210415 -0.000537423 0.0
0 0 0.0
0.0480083 -4.3068e-05 0.0
0.128239 -0.000263976 0.0
0.0907096 -0.000142492 0.0
0.126923 -0.000230366 0.0
0.159456 -0.00033637 0.0
0.0470733 -4.0398e-05 0.0
0.0894173 -0.00012998 0.0
0 0 0.0
0.160688 -0.000388964 0.0
0.1881 -0.000500812 0.0
0.24738 -0.000684597 0.0
0.249989 -0.000733423 0.0
0.240242 -0.00071649 0.0
0.227876 -0.000675778 0.0
0.247619 -0.000764367 0.0
0.239753 -0.000684088 0.0
0.227164 -0.000607309 0.0
0.186963 -0.000461022 0.0
0.209537 -0.000560161 0.0
0.210495 -0.000601488 0.0
0 0 0.0
0.0480862 -4.65249e-05 0.0
0.128351 -0.000286865 0.0
0.0908301 -0.000155064 0.0
0.126814 -0.000256097 0.0
0.159354 -0.000373304 0.0
0 0 0.0
0.0893099 -0.000145575 0.0
0.0470005 -4.5166e-05 0.0
0.188211 -0.000560476 0.0
0.160815 -0.000432206 0.0
0.227931 -0.000740646 0.0
0.247355 -0.000760505 0.0
0.249983 -0.000815358 0.0
0.247632 -0.000831314 0.0
0.240275 -0.000782234 0.0
0.239706 -0.000756795 0.0
0.2271 -0.000671728 0.0
0.186842 -0.000520931 0.0
0.209454 -0.00061855 0.0
0.210584 -0.000671781 0.0
0 0 0.0
0.0481724 -4.9802e-05 0.0
0.0909497 -0.000166608 0.0
0.128497 -0.000315505 0.0
0.126676 -0.000289059 0.0
0.159242 -0.000412972 0.0
0 0 0.0
0.0469117 -5.10622e-05 0.0
0.0892043 -0.000160827 0.0
0.188305 -0.000608541 0.0
0.16096 -0.000480945 0.0
0.227988 -0.000812107 0.0
0.240335 -0.000911766 0.0
0.247325 -0.000842361 0.0
0.249974 -0.000903859 0.0
0.247645 -0.00090264 0.0
0.239651 -0.000834114 0.0
0.227029 -0.000739941 0.0
0.186762 -0.000559571 0.0
0.209362 -0.000678661 0.0
0.210686 -0.000752044 0.0
0 0 0.0
0.0482664 -5.31361e-05 0.0
0.12869 -0.000354609 0.0
0.0911115 -0.000183634 0.0
0.126563 -0.000316207 0.0
0.159121 -0.00045516 0.0
0.0468207 -5.71929e-05 0.0
0 0 0.0
0.0890618 -0.000182309 0.0
0.161123 -0.000537244 0.0
0.188478 -0.00070028 0.0
0.228096 -0.000945301 0.0
0.240383 -0.00102027 0.0
0.24766 -0.0010051 0.0
0.24727 -0.000969616 0.0
0.249961 -0.00100263 0.0
0.239588 -0.000917831 0.0
0.22692 -0.000835302 0.0
0.186618 -0.000624883 0.0
0.209261 -0.00074177 0.0
0.210798 -0.00084392 0.0
0 0 0.0
0.0483667 -5.68738e-05 0.0
0.0912764 -0.00020045 0.0
0.16131 -0.00060184 0.0
0.128853 -0.000388057 0.0
0.126422 -0.000350052 0.0
0.159016 -0.000490156 0.0
0.046712 -6.53299e-05 0.0
0 0 0.0
0.0889308 -0.000202366 0.0
0.210904 -0.000933459 0.0
0.1886 -0.000767621 0.0
0.240421 -0.00111556 0.0
0.228182 -0.00106615 0.0
0.247677 -0.00117061 0.0
0.249941 -0.00110905 0.0
0.247232 -0.00104455 0.0
0.239515 -0.00100408 0.0
0.226842 -0.000896403 0.0
0.186523 -0.000664705 0.0
0.15885 -0.000543446 0.0
0.20915 -0.00080421 0.0
0 0 0.0
0.0914451 -0.000221911 0.0
0.0484853 -6.2281e-05 0.0
0.161479 -0.000667266 0.0
0.129102 -0.000447936 0.0
0.12627 -0.000385008 0.0
0 0 0.0
0.0465898 -7.40005e-05 0.0
0.0887574 -0.000227938 0.0
0.211021 -0.00103472 0.0
0.188822 -0.000901773 0.0
0.240459 -0.00122044 0.0
0.228275 -0.00120438 0.0
0.247677 -0.00127613 0.0
0.24991 -0.00122746 0.0
0.247189 -0.001126 0.0
0.158732 -0.000574687 0.0
0.209047 -0.000856163 0.0
0.239427 -0.00109341 0.0
0.226756 -0.000959025 0.0
0.18639 -0.000716135 0.0
0 0 0.0
0.0486043 -6.88675e-05 0.0
0.0916545 -0.000253393 0.0
0.161717 -0.000764376 0.0
0.129356 -0.000516114 0.0
0.0885852 -0.000249566 0.0
0.126083 -0.000422575 0.0
0 0 0.0
0.0464477 -8.30272e-05 0.0
0.211168 -0.00117748 0.0
0.189029 -0.00103492 0.0
0.240503 -0.00137107 0.0
0.228371 -0.00136596 0.0
0.247676 -0.00139104 0.0
0.249869 -0.00135856 0.0
0.247084 -0.00128346 0.0
0.158579 -0.0006098 0.0
0.239324 -0.00118755 0.0
0.208934 -0.000904 0.0
0.226596 -0.00105999 0.0
0.18621 -0.000773725 0.0
0 0 0.0
0.0919288 -0.000302448 0.0
0.0487472 -8.16851e-05 0.0
0.162045 -0.000916242 0.0
0.129648 -0.000606668 0.0
0.0884223 -0.000265594 0.0
0.125912 -0.000450669 0.0
0 0 0.0
0.0462969 -9.24121e-05 0.0
0.189257 -0.00119938 0.0
0.21133 -0.00134989 0.0
0.240542 -0.00154824 0.0
0.247662 -0.00155144 0.0
0.228469 -0.00155494 0.0
0.249807 -0.00150035 0.0
0.246984 -0.00140699 0.0
0.239198 -0.00128277 0.0
0.249313 -0.00165621 0.0
0.158415 -0.00063356 0.0
0.226449 -0.00113203 0.0
0.208736 -0.000970409 0.0
0.186089 -0.0007989 0.0
0 0 0.0
0.0921979 -0.000359137 0.0
0.0489304 -9.82044e-05 0.0
0.162295 -0.00104718 0.0
0.129987 -0.000725125 0.0
0.0882351 -0.000277643 0.0
0.12576 -0.000465064 0.0
0 0 0.0
0.0461459 -9.87866e-05 0.0
0.189511 -0.0013998 0.0
0.211502 -0.00155731 0.0
0.240564 -0.00174662 0.0
0.228566 -0.00178105 0.0
0.247602 -0.00182901 0.0
0.248937 -0.00156701 0.0
0.243603 -0.0014357 0.0
0.233315 -0.00127438 0.0
0.249667 -0.00174688 0.0
0.158245 -0.000639726 0.0
0.21807 -0.00109607 0.0
0.203371 -0.000958678 0.0
0.185875 -0.000821597 0.0
0 0 0.0
0.0925522 -0.000442666 0.0
0.0491414 -0.000120087 0.0
0.162643 -0.00124804 0.0
0.130385 -0.000879091 0.0
0.125556 -0.000464932 0.0
0.0880477 -0.000279751 0.0
0 0 0.0
0.0459753 -0.000101054 0.0
0.18979 -0.00164601 0.0
0.211684 -0.00180578 0.0
0.247525 -0.00204695 0.0
0.228654 -0.00204331 0.0
0.24058 -0.00198233 0.0
0.246774 -0.00161345 0.0
0.238933 -0.00143835 0.0
0.226148 -0.0012383 0.0
0.249526 -0.00193219 0.0
0.158062 -0.000624566 0.0
0.208417 -0.0010254 0.0
0.185676 -0.000818414 0.0
0 0 0.0
0.0493953 -0.000148721 0.0
0.0929792 -0.000550104 0.0
0.130781 -0.00104192 0.0
0.190091 -0.00194095 0.0
0.163037 -0.0014958 0.0
0.125378 -0.000441722 0.0
0.0878669 -0.00026924 0.0
0.0458104 -0.000101011 0.0
0 0 0.0
0.228719 -0.00229553 0.0
0.211871 -0.00210446 0.0
0.247444 -0.00224019 0.0
0.240562 -0.00225558 0.0
0.225916 -0.00128961 0.0
0.246586 -0.00175566 0.0
0.238714 -0.00153592 0.0
0.249345 -0.00213733 0.0
0.185458 -0.000786907 0.0
0.157835 -0.000565923 0.0
0.208113 -0.001036 0.0
0 0 0.0
0.0497272 -0.000191141 0.0
0.0935656 -0.000694054 0.0
0.131321 -0.00127489 0.0
0.190332 -0.00220677 0.0
0.163578 -0.00187159 0.0
0.125213 -0.000392438 0.0
0.087694 -0.00023712 0.0
0.0456617 -9.38907e-05 0.0
0 0 0.0
0.125066 -0.000313888 0.0
0.22877 -0.00257021 0.0
0.212116 -0.00257806 0.0
0.240492 -0.00270865 0.0
0.247335 -0.00244867 0.0
0.225527 -0.00134197 0.0
0.238446 -0.00163092 0.0
0.24635 -0.00191038 0.0
0.249103 -0.00236727 0.0
0.185207 -0.000727353 0.0
0.157628 -0.000486716 0.0
0.207822 -0.00102225 0.0
0 0 0.0
0.0501394 -0.000236417 0.0
0.0942213 -0.000857886 0.0
0.131954 -0.00155297 0.0
0.190677 -0.00260369 0.0
0.164095 -0.00224652 0.0
0.0455251 -8.49486e-05 0.0
0.0875629 -0.000195324 0.0
0 0 0.0
0.124957 -0.00022373 0.0
0.228811 -0.00296674 0.0
0.212299 -0.00300858 0.0
0.240386 -0.00308329 0.0
0.247143 -0.00275721 0.0
0.225225 -0.00136994 0.0
0.238118 -0.00172742 0.0
0.248799 -0.00262202 0.0
0.245901 -0.00215631 0.0
0.18499 -0.000661936 0.0
0.157413 -0.000374763 0.0
0.207484 -0.00098357 0.0
0 0 0.0
0.0506515 -0.000295374 0.0
0.0950162 -0.00104794 0.0
0.132821 -0.0019287 0.0
0.191138 -0.00319379 0.0
0.212476 -0.00350555 0.0
0.164679 -0.00268266 0.0
0.0454298 -6.77793e-05 0.0
0.0874787 -0.000136796 0.0
0 0 0.0
0.124859 -9.8448e-05 0.0
0.228818 -0.00358024 0.0
0.240268 -0.00342477 0.0
0.246892 -0.00310261 0.0
0.248516 -0.00283698 0.0
0.224883 -0.00138271 0.0
0.237705 -0.00183416 0.0
0.245488 -0.00234322 0.0
0.157194 -0.00023123 0.0
0.184669 -0.000553365 0.0
0.207075 -0.000927455 0.0
0 0 0.0
0.0513103 -0.000365879 0.0
0.0959732 -0.00127019 0.0
0.133721 -0.00230858 0.0
0.191433 -0.00360268 0.0
0.212634 -0.00405741 0.0
0.165344 -0.00317659 0.0
0.0453647 -4.9318e-05 0.0
0.0874537 -6.21197e-05 0.0
0 0 0.0
0.157011 -9.55929e-05 0.0
0.0875 2.81841e-05 0.0
0.124794 6.82397e-05 0.0
0.22877 -0.00412918 0.0
0.240104 -0.00378756 0.0
0.246395 -0.00367789 0.0
0.24819 -0.00306291 0.0
0.245115 -0.0025077 0.0
0.22439 -0.00139481 0.0
0.236999 -0.00198571 0.0
0.184202 -0.000380256 0.0
0.206672 -0.000871706 0.0
0.228708 -0.00460983 0.0
0 0 0.0
0.052069 -0.000439933 0.0
0.134779 -0.00273311 0.0
0.0971012 -0.0015191 0.0
0.212785 -0.00469049 0.0
0.191968 -0.00436074 0.0
0.166094 -0.00372674 0.0
0.0453535 -1.81734e-05 0.0
0 0 0.0
0.183871 -0.000268478 0.0
0.156781 8.52485e-05 0.0
0.124795 0.000219799 0.0
0.0453627 4.6258e-06 0.0
0.0876142 0.000119625 0.0
0.239851 -0.00430058 0.0
0.246046 -0.00403076 0.0
0.247663 -0.00340098 0.0
0.247203 -0.00368633 0.0
0.244673 -0.00267768 0.0
0.223794 -0.00141251 0.0
0.236347 -0.00211022 0.0
0.206205 -0.000797082 0.0
0.228592 -0.00513762 0.0
0.0529208 -0.000519276 0.0
0 0 0.0
0.135797 -0.00312212 0.0
0.0984175 -0.00178373 0.0
0.212917 -0.00538513 0.0
0.192308 -0.00486745 0.0
0.16695 -0.00433563 0.0
0 0 0.0
0.183407 -0.000101254 0.0
0.156504 0.000308397 0.0
0.124834 0.000361023 0.0
0.0454468 2.83339e-05 0.0
0.0877932 0.000208667 0.0
0.239358 -0.00512602 0.0
0.245655 -0.00440422 0.0
0.24667 -0.0039848 0.0
0.243687 -0.00303524 0.0
0.223103 -0.00142447 0.0
0.235606 -0.0022456 0.0
0.20538 -0.000688615 0.0
0.228426 -0.00584775 0.0
0 0 0.0
0.05398 -0.000607989 0.0
0.137164 -0.00361637 0.0
0.0997954 -0.00204514 0.0
0.167913 -0.00498979 0.0
0.213035 -0.00615695 0.0
0.192944 -0.00578226 0.0
0 0 0.0
0 0 0.0
0.182869 5.42046e-05 0.0
0.156283 0.000486548 0.0
0.124935 0.000509771 0.0
0.0880526 0.000288585 0.0
0.0455778 5.06386e-05 0.0
0.238902 -0.00578876 0.0
0.245039 -0.00494736 0.0
0.234908 -0.00237426 0.0
0.245865 -0.00442981 0.0
0.24283 -0.00333388 0.0
0.222285 -0.00145342 0.0
0.204618 -0.000609874 0.0
0.238473 -0.00637793 0.0
0.228182 -0.00662954 0.0
0.0552191 -0.000707652 0.0
0.101533 -0.00235229 0.0
0.138725 -0.00415421 0.0
0.16879 -0.00556612 0.0
0.21315 -0.00699253 0.0
0.193352 -0.00639806 0.0
0 0 0.0
0 0 0.0
0.156102 0.000619366 0.0
0.182145 0.000238312 0.0
0.0883388 0.00035354 0.0
0.125104 0.000655551 0.0
0.0457284 6.90397e-05 0.0
0.243968 -0.00581143 0.0
0.244911 -0.0049314 0.0
0.203775 -0.000546112 0.0
0.234131 -0.00251029 0.0
0.242091 -0.00359263 0.0
0.221 -0.00151611 0.0
0.237986 -0.00698526 0.0
0.227788 -0.00780174 0.0
0.213246 -0.00791044 0.0
0.0566983 -0.000827997 0.0
0.103506 -0.00269447 0.0
0.14078 -0.00481824 0.0
0.17 -0.00631853 0.0
0.194124 -0.00749196 0.0
0 0 0.0
0 0 0.0
0.155856 0.000778009 0.0
0.181499 0.00034268 0.0
0.0887614 0.000406933 0.0
0.125314 0.000746196 0.0
0.0459488 8.54681e-05 0.0
0.241256 -0.00387674 0.0
0.243825 -0.00547479 0.0
0.24305 -0.00651294 0.0
0.202829 -0.000507023 0.0
0.233032 -0.00271938 0.0
0.219879 -0.00160934 0.0
0.180824 0.00040774 0.0
0.236967 -0.00818849 0.0
0 0 0.0
0.227389 -0.0087851 0.0
0.194815 -0.00846496 0.0
0.213332 -0.00890124 0.0
0.058242 -0.000940556 0.0
0.142528 -0.0053634 0.0
0.105978 -0.00311537 0.0
0.171648 -0.00733064 0.0
0 0 0.0
0 0 0.0
0 0 0.0
0 0 0.0
0 0 0.0
0.0461672 9.11933e-05 0.0
0.12558 0.000792374 0.0
0.155667 0.000852017 0.0
0.089115 0.000423675 0.0
0.240045 -0.00426808 0.0
0.242577 -0.0060877 0.0
0.242021 -0.00727552 0.0
0.218859 -0.00169261 0.0
0.201778 -0.000508574 0.0
0.231235 -0.0030717 0.0
0.20082 -0.000542664 0.0
0.180282 0.000424573 0.0
0.236084 -0.0091627 0.0
0.226936 -0.00983487 0.0
0 0 0.0
8.56406e-05 -2.73464e-05 0.0
0 0 0.0
-0.000473187 0.00326416 0.0
0.213424 -0.00999499 0.0
0.195395 -0.00923896 0.0
0.0601775 -0.00108999 0.0
0.144767 -0.00604983 0.0
0.108519 -0.00354562 0.0
0.173228 -0.00826431 0.0
0 0 0.0
0 0 0.0
0 0 0.0
-0.000374215 0.0019549 0.0
-7.9301e-05 3.45929e-06 0.0
-8.77927e-05 6.67452e-05 0.0
0 0 0.0
0.0463703 8.30341e-05 0.0
0.125808 0.000795229 0.0
0.155487 0.000864518 0.0
0.0895642 0.000409277 0.0
0.238677 -0.00472337 0.0
0.24117 -0.0067612 0.0
0.240837 -0.00810688 0.0
0.217753 -0.00181801 0.0
0.230065 -0.00332851 0.0
0.199799 -0.000608473 0.0
0.179364 0.000364254 0.0
0.2351 -0.0102107 0.0
0.229036 -0.0107575 0.0
0.220519 -0.0109902 0.0
0 0 0.0
1.7825e-05 5.78783e-05 0.0
0 0 0.0
0 0 0.0
-0.00162954 0.00692204 0.0
-0.00167343 0.00482626 0.0
0.209567 -0.0109112 0.0
0.196223 -0.0103683 0.0
0.11108 -0.00398828 0.0
0.0621828 -0.00126229 0.0
0.147262 -0.00683109 0.0
0.174957 -0.00929555 0.0
0 0 0.0
-0.0007172 0.00119089 0.0
-0.00121887 0.00274286 0.0
-0.000553375 0.000592575 0.0
-0.000626571 0.000495715 0.0
0 0 0.0
0.0465645 6.77541e-05 0.0
0.126099 0.000738119 0.0
0.155323 0.000815533 0.0
0.0899585 0.000357292 0.0
0.237135 -0.00522827 0.0
0.239592 -0.00749548 0.0
0.239497 -0.00901304 0.0
0.215742 -0.00209419 0.0
0.228796 -0.00360008 0.0
0.198523 -0.000763467 0.0
0.155201 0.000667473 0.0
0.178615 0.000221116 0.0
0.234212 -0.0111068 0.0
0.226015 -0.0118074 0.0
0.213543 -0.0121164 0.0
0 0 0.0
-0.000518497 0.000241153 0.0
0 0 0.0
0 0 0.0
0 0 0.0
0 0 0.0
-0.00313686 0.00509239 0.0
-0.000414974 0.0056975 0.0
-0.00159371 0.00866245 0.0
-0.00379116 0.0112144 0.0
-0.00336665 0.00800754 0.0
0 0 0.0
-5.49379e-06 0.00752934 0.0
0.197344 -0.0119794 0.0
0.176483 -0.0102406 0.0
0 0 0.0
0.0647409 -0.00150661 0.0
0.114254 -0.004574 0.0
0.15049 -0.0079397 0.0
0 0 0.0
0 0 0.0
-0.00206314 0.00269532 0.0
-0.0017579 0.00160078 0.0
-0.00181261 0.00104433 0.0
0 0 0.0
0.0467115 3.7937e-05 0.0