# vtk DataFile Version 3.0
Mesh NS-CD Problem
ASCII
DATASET UNSTRUCTURED_GRID
POINTS 10839 float
-2 0.3 0.0
-2 0.4 0.0
-2 0.35 0.0
-2 0.45 0.0
-2 0.5 0.0
-2 0.55 0.0
-2 0 0.0
-2 0.05 0.0
-2 0.85 0.0
-2 0.9 0.0
-2 0.1 0.0
-2 0.15 0.0
-2 0.25 0.0
-2 0.2 0.0
-1.96653 0.266667 0.0
-1.96524 0.415385 0.0
-1.96485 0.315 0.0
-1.96348 0.363636 0.0
-1.96414 0.464286 0.0
-2 0.6 0.0
-1.96538 0.584615 0.0
-1.96538 0.538462 0.0
-1.94979 0 0.0
-1.96653 0.0666666 0.0
-1.93306 0.0333333 0.0
-2 0.8 0.0
-2 0.75 0.0
-2 0.7 0.0
-2 0.65 0.0
-1.96249 0.7375 0.0
-1.96666 0.833333 0.0
-2 1 0.0
-2 0.95 0.0
-1.96249 0.8875 0.0
-1.96666 0.933333 0.0
-1.96234 0.1125 0.0
-1.96653 0.166667 0.0
-1.93724 0.225 0.0
-1.92971 0.28 0.0
-1.93048 0.380769 0.0
-1.93048 0.423077 0.0
-1.89958 0.3375 0.0
-1.9292 0.484203 0.0
-1.92117 0.530907 0.0
-1.96363 0.636364 0.0
-1.93076 0.576923 0.0
-1.89958 0 0.0
-1.88703 0.0375 0.0
-1.90963 0.08 0.0
-1.86611 0.0666666 0.0
-1.93749 0.775 0.0
-1.93635 0.672727 0.0
-1.92999 0.72 0.0
-1.93332 0.866667 0.0
-1.92856 0.821429 0.0
-1.94999 1 0.0
-1.92499 0.9625 0.0
-1.92499 0.925 0.0
-1.89998 0.9 0.0
-1.89958 0.125 0.0
-1.92827 0.178571 0.0
-1.89958 0.233333 0.0
-1.89045 0.290909 0.0
-1.86096 0.311538 0.0
-1.89241 0.392857 0.0
-1.89334 0.448489 0.0
-1.85655 0.357143 0.0
-1.89614 0.653846 0.0
-1.89427 0.504121 0.0
-1.8952 0.559753 0.0
-1.89614 0.615385 0.0
-1.84937 0 0.0
-1.83264 0.0333333 0.0
-1.85655 0.107143 0.0
-1.81172 0.075 0.0
-1.89998 0.766667 0.0
-1.89089 0.709091 0.0
-1.87498 0.85 0.0
-1.85998 0.79 0.0
-1.88748 0.8125 0.0
-1.89998 1 0.0
-1.88748 0.9625 0.0
-1.86664 0.933333 0.0
-1.85712 0.892857 0.0
-1.87448 0.15 0.0
-1.86611 0.194444 0.0
-1.83264 0.133333 0.0
-1.83264 0.2625 0.0
-1.82068 0.321429 0.0
-1.85664 0.404762 0.0
-1.85674 0.452381 0.0
-1.85683 0.5 0.0
-1.81184 0.375 0.0
-1.85712 0.642857 0.0
-1.85693 0.547619 0.0
-1.85702 0.595238 0.0
-1.79917 0 0.0
-1.78482 0.0357143 0.0
-1.79917 0.116667 0.0
-1.76569 0.0666666 0.0
-1.85452 0.745455 0.0
-1.82689 0.692308 0.0
-1.81815 0.781818 0.0
-1.82497 0.825 0.0
-1.84997 1 0.0
-1.8333 0.958333 0.0
-1.81247 0.8875 0.0
-1.81247 0.925 0.0
-1.81742 0.218182 0.0
-1.82427 0.175 0.0
-1.77634 0.145455 0.0
-1.79144 0.242308 0.0
-1.78482 0.285714 0.0
-1.77469 0.332653 0.0
-1.81215 0.529762 0.0
-1.81194 0.422619 0.0
-1.81203 0.470238 0.0
-1.76714 0.392857 0.0
-1.81234 0.625 0.0
-1.79732 0.571429 0.0
-1.74896 0 0.0
-1.73222 0.0333333 0.0
-1.75398 0.105 0.0
-1.71883 0.07 0.0
-1.79227 0.730769 0.0
-1.78007 0.679121 0.0
-1.75765 0.769231 0.0
-1.78178 0.818182 0.0
-1.78996 0.86 0.0
-1.79996 1 0.0
-1.78568 0.964286 0.0
-1.76663 0.922222 0.0
-1.76569 0.1875 0.0
-1.73222 0.15 0.0
-1.74896 0.25 0.0
-1.73714 0.304762 0.0
-1.76743 0.537202 0.0
-1.72869 0.343878 0.0
-1.76732 0.485119 0.0
-1.76723 0.440476 0.0
-1.72243 0.410714 0.0
-1.76757 0.607143 0.0
-1.69875 0 0.0
-1.68369 0.035 0.0
-1.69875 0.1125 0.0
-1.66528 0.075 0.0
-1.74341 0.708974 0.0
-1.73324 0.665934 0.0
-1.70441 0.74478 0.0
-1.71423 0.785714 0.0
-1.72303 0.826923 0.0
-1.74541 0.854545 0.0
-1.74541 0.890909 0.0
-1.74996 1 0.0
-1.73745 0.9625 0.0
-1.71359 0.927273 0.0
-1.68716 0.153846 0.0
-1.7131 0.214286 0.0
-1.70725 0.275 0.0
-1.69712 0.321939 0.0
-1.72279 0.589286 0.0
-1.72261 0.5 0.0
-1.7227 0.544643 0.0
-1.6827 0.355102 0.0
-1.67773 0.428571 0.0
-1.70763 0.464286 0.0
-1.70369 0.62449 0.0
-1.64854 0 0.0
-1.63181 0.0375 0.0
-1.64137 0.142857 0.0
-1.61764 0.0769231 0.0
-1.69458 0.703846 0.0
-1.67471 0.657437 0.0
-1.66143 0.727637 0.0
-1.67125 0.768571 0.0
-1.67851 0.821429 0.0
-1.68841 0.861538 0.0
-1.70904 0.890909 0.0
-1.69995 1 0.0
-1.68176 0.963636 0.0
-1.67267 0.927273 0.0
-1.65427 0.187143 0.0
-1.66718 0.231429 0.0
-1.66554 0.3 0.0
-1.67802 0.571429 0.0
-1.67792 0.523809 0.0
-1.6367 0.366327 0.0
-1.63682 0.423469 0.0
-1.62568 0.502976 0.0
-1.6629 0.470238 0.0
-1.65254 0.618367 0.0
-1.6059 0.307143 0.0
-1.59833 0 0.0
-1.58288 0.0384615 0.0
-1.60563 0.169643 0.0
-1.58179 0.112271 0.0
-1.56964 0.0714286 0.0
-1.64574 0.690385 0.0
-1.62827 0.751429 0.0
-1.63371 0.791071 0.0
-1.64279 0.857143 0.0
-1.65378 0.896154 0.0
-1.64994 1 0.0
-1.6363 0.963636 0.0
-1.61916 0.930769 0.0
-1.61345 0.209107 0.0
-1.62126 0.248571 0.0
-1.56989 0.196429 0.0
-1.63324 0.553571 0.0
-1.58846 0.535714 0.0
-1.59408 0.361905 0.0
-1.59161 0.402211 0.0
-1.58832 0.464286 0.0
-1.61504 0.598581 0.0
-1.59683 0.64359 0.0
-1.57899 0.274107 0.0
-1.56176 0.322381 0.0
-1.54812 0 0.0
-1.53378 0.0357143 0.0
-1.54593 0.147619 0.0
-1.53385 0.0732143 0.0
-1.53393 0.110714 0.0
-1.58522 0.704286 0.0
-1.58709 0.745 0.0
-1.58896 0.785714 0.0
-1.60695 0.830357 0.0
-1.60707 0.892857 0.0
-1.59993 1 0.0
-1.58454 0.965385 0.0
-1.57135 0.928571 0.0
-1.55209 0.241071 0.0
-1.5291 0.198214 0.0
-1.56936 0.570918 0.0
-1.54369 0.517857 0.0
-1.5464 0.380952 0.0
-1.54564 0.427721 0.0
-1.54488 0.47449 0.0
-1.55026 0.606122 0.0
-1.54222 0.677143 0.0
-1.52943 0.282857 0.0
-1.52143 0.33619 0.0
-1.49792 0 0.0
-1.49802 0.05 0.0
-1.49822 0.15 0.0
-1.49312 0.1 0.0
-1.5423 0.717143 0.0
-1.54419 0.767857 0.0
-1.54727 0.819048 0.0
-1.57122 0.861905 0.0
-1.53553 0.914286 0.0
-1.54992 1 0.0
-1.53563 0.964286 0.0
-1.49842 0.25 0.0
-1.48831 0.2 0.0
-1.5214 0.558929 0.0
-1.49891 0.5 0.0
-1.49871 0.4 0.0
-1.47631 0.45 0.0
-1.49911 0.6 0.0
-1.49921 0.65 0.0
-1.49931 0.7 0.0
-1.48111 0.35 0.0
-1.48351 0.3 0.0
-1.44771 0 0.0
-1.44782 0.05 0.0
-1.44804 0.15 0.0
-1.44793 0.1 0.0
-1.49941 0.75 0.0
-1.49951 0.8 0.0
-1.49981 0.95 0.0
-1.49961 0.85 0.0
-1.49971 0.9 0.0
-1.49991 1 0.0
-1.44826 0.25 0.0
-1.43815 0.2 0.0
-1.47151 0.55 0.0
-1.44881 0.5 0.0
-1.44859 0.4 0.0
-1.42619 0.45 0.0
-1.44913 0.65 0.0
-1.44902 0.6 0.0
-1.44935 0.75 0.0
-1.44924 0.7 0.0
-1.43972 0.35 0.0
-1.43336 0.3 0.0
-1.3975 0 0.0
-1.39762 0.05 0.0
-1.39786 0.15 0.0
-1.39274 0.1 0.0
-1.44957 0.85 0.0
-1.44946 0.8 0.0
-1.4523 0.95 0.0
-1.44968 0.9 0.0
-1.4499 1 0.0
-1.3981 0.25 0.0
-1.38798 0.2 0.0
-1.42141 0.55 0.0
-1.3987 0.5 0.0
-1.39834 0.35 0.0
-1.37845 0.4 0.0
-1.37607 0.45 0.0
-1.40784 0.65 0.0
-1.39894 0.6 0.0
-1.41185 0.75 0.0
-1.39918 0.7 0.0
-1.38322 0.3 0.0
-1.34729 0 0.0
-1.34492 0.05 0.0
-1.34018 0.15 0.0
-1.34255 0.1 0.0
-1.40707 0.85 0.0
-1.39941 0.8 0.0
-1.39977 0.95 0.0
-1.39965 0.9 0.0
-1.39989 1 0.0
-1.33781 0.2 0.0
-1.33544 0.25 0.0
-1.37131 0.55 0.0
-1.34859 0.5 0.0
-1.33833 0.4 0.0
-1.3307 0.35 0.0
-1.32595 0.45 0.0
-1.34885 0.6 0.0
-1.36655 0.65 0.0
-1.36179 0.75 0.0
-1.34911 0.7 0.0
-1.33307 0.3 0.0
-1.29708 0 0.0
-1.29722 0.05 0.0
-1.2975 0.15 0.0
-1.29236 0.1 0.0
-1.35703 0.85 0.0
-1.34937 0.8 0.0
-1.34988 1 0.0
-1.34962 0.9 0.0
-1.35226 0.95 0.0
-1.28528 0.25 0.0
-1.28764 0.2 0.0
-1.28931 0.35 0.0
-1.32121 0.55 0.0
-1.29848 0.5 0.0
-1.28709 0.45 0.0
-1.2982 0.4 0.0
-1.29876 0.6 0.0
-1.31647 0.65 0.0
-1.29918 0.75 0.0
-1.29904 0.7 0.0
-1.28292 0.3 0.0
-1.24687 0 0.0
-1.24702 0.05 0.0
-1.24717 0.1 0.0
-1.24732 0.15 0.0
-1.29946 0.85 0.0
-1.29932 0.8 0.0
-1.29987 1 0.0
-1.29974 0.95 0.0
-1.30462 0.9 0.0
-1.24762 0.25 0.0
-1.23747 0.2 0.0
-1.24792 0.35 0.0
-1.22807 0.4 0.0
-1.27111 0.55 0.0
-1.24837 0.5 0.0
-1.24822 0.45 0.0
-1.24867 0.6 0.0
-1.26639 0.65 0.0
-1.26167 0.75 0.0
-1.24897 0.7 0.0
-1.23277 0.3 0.0
-1.19667 0 0.0
-1.19683 0.05 0.0
-1.18964 0.15 0.0
-1.19198 0.1 0.0
-1.25695 0.85 0.0
-1.24927 0.8 0.0
-1.25223 0.95 0.0
-1.24987 1 0.0
-1.24957 0.9 0.0
-1.1873 0.2 0.0
-1.18496 0.25 0.0
-1.18028 0.35 0.0
-1.17794 0.4 0.0
-1.1981 0.45 0.0
-1.19842 0.55 0.0
-1.19826 0.5 0.0
-1.19858 0.6 0.0
-1.19874 0.65 0.0
-1.19906 0.75 0.0
-1.1989 0.7 0.0
-1.18262 0.3 0.0
-1.14646 0 0.0
-1.14663 0.05 0.0
-1.1418 0.1 0.0
-1.13713 0.2 0.0
-1.14697 0.15 0.0
-1.20691 0.85 0.0
-1.20926 0.8 0.0
-1.20221 0.95 0.0
-1.19986 1 0.0
-1.20456 0.9 0.0
-1.13997 0.3 0.0
-1.14731 0.25 0.0
-1.13781 0.4 0.0
-1.13014 0.35 0.0
-1.12548 0.45 0.0
-1.14815 0.5 0.0
-1.15962 0.55 0.0
-1.14849 0.6 0.0
-1.15745 0.65 0.0
-1.16155 0.75 0.0
-1.14917 0.8 0.0
-1.14883 0.7 0.0
-1.09625 0 0.0
-1.09661 0.1 0.0
-1.09393 0.05 0.0
-1.09697 0.2 0.0
-1.08929 0.15 0.0
-1.15687 0.85 0.0
-1.14985 1 0.0
-1.15219 0.95 0.0
-1.14951 0.9 0.0
-1.09733 0.3 0.0
-1.08465 0.25 0.0
-1.09769 0.4 0.0
-1.08 0.35 0.0
-1.08661 0.45 0.0
-1.09804 0.5 0.0
-1.12082 0.55 0.0
-1.10916 0.8 0.0
-1.10629 0.7 0.0
-1.0984 0.6 0.0
-1.11616 0.65 0.0
-1.11149 0.75 0.0
-1.04604 0 0.0
-1.04623 0.05 0.0
-1.04642 0.1 0.0
-1.0468 0.2 0.0
-1.03911 0.15 0.0
-1.09948 0.9 0.0
-1.0993 0.85 0.0
-1.09984 1 0.0
-1.09966 0.95 0.0
-1.04718 0.3 0.0
-1.03449 0.25 0.0
-1.04756 0.4 0.0
-1.02986 0.35 0.0
-1.04775 0.45 0.0
-1.04794 0.5 0.0
-1.04813 0.55 0.0
-1.05911 0.8 0.0
-1.04831 0.6 0.0
-1.06376 0.7 0.0
-1.0485 0.65 0.0
-1.04888 0.75 0.0
-0.995833 0 0.0
-0.991231 0.1 0.0
-0.996033 0.05 0.0
-0.986629 0.2 0.0
-0.98893 0.15 0.0
-1.05447 0.9 0.0
-1.04926 0.85 0.0
-1.04983 1 0.0
-1.04964 0.95 0.0
-0.984328 0.25 0.0
-0.99703 0.3 0.0
-0.997429 0.4 0.0
-0.997628 0.45 0.0
-0.979726 0.35 0.0
-0.997827 0.5 0.0
-0.998027 0.55 0.0
-0.998226 0.6 0.0
-0.961416 0.475 0.0
-1.00907 0.8 0.0
-0.998426 0.65 0.0
-0.998625 0.7 0.0
-1.01138 0.75 0.0
-0.945625 0 0.0
-0.946044 0.1 0.0
-0.943334 0.05 0.0
-0.946463 0.2 0.0
-0.938752 0.15 0.0
-1.00444 0.9 0.0
-1.00675 0.85 0.0
-0.999821 1 0.0
-1.00213 0.95 0.0
-0.93417 0.25 0.0
-0.946881 0.3 0.0
-0.9473 0.4 0.0
-0.929588 0.35 0.0
-0.925005 0.45 0.0
-0.960371 0.525 0.0
-0.959325 0.575 0.0
-0.958279 0.625 0.0
-0.922714 0.5 0.0
-0.959017 0.8 0.0
-0.957233 0.675 0.0
-0.952999 0.7125 0.0
-0.948766 0.75 0.0
-0.895417 0 0.0
-0.895855 0.1 0.0
-0.893136 0.05 0.0
-0.896294 0.2 0.0
-0.888573 0.15 0.0
-0.949184 0.85 0.0
-0.954415 0.9 0.0
-0.949812 1 0.0
-0.949603 0.95 0.0
-0.884011 0.25 0.0
-0.896733 0.3 0.0
-0.874887 0.45 0.0
-0.879449 0.35 0.0
-0.897171 0.4 0.0
-0.920423 0.55 0.0
-0.918132 0.6 0.0
-0.915841 0.65 0.0
-0.872606 0.5 0.0
-0.908968 0.8 0.0
-0.91355 0.7 0.0
-0.898707 0.75 0.0
-0.845208 0 0.0
-0.845438 0.05 0.0
-0.845667 0.1 0.0
-0.845896 0.15 0.0
-0.833853 0.25 0.0
-0.846126 0.2 0.0
-0.899146 0.85 0.0
-0.904386 0.9 0.0
-0.899584 0.95 0.0
-0.899804 1 0.0
-0.838062 0.35 0.0
[...]
POINT_DATA 10839
VECTORS Velocity float
0.21 0 0.0
0.24 0 0.0
0.2275 0 0.0
0.2475 0 0.0
0.25 0 0.0
0.2475 0 0.0
0 0 0.0
0.0475 0 0.0
0.1275 0 0.0
0.09 0 0.0
0.09 0 0.0
0.1275 0 0.0
0.1875 0 0.0
0.16 0 0.0
0.195557 -2.43592e-05 0.0
0.242841 -3.31723e-05 0.0
0.215776 -2.89703e-05 0.0
0.231406 -3.26406e-05 0.0
0.248725 -3.53111e-05 0.0
0.24 0 0.0
0.24284 -3.30978e-05 0.0
0.24852 -3.40072e-05 0.0
0 0 0.0
0.062224 -4.28176e-06 0.0
0.0322271 -2.83141e-06 0.0
0.16 0 0.0
0.1875 0 0.0
0.21 0 0.0
0.2275 0 0.0
0.193592 -2.73413e-05 0.0
0.138887 -1.52241e-05 0.0
0 0 0.0
0.0475 0 0.0
0.0998415 -1.05996e-05 0.0
0.0622205 -4.33027e-06 0.0
0.0998462 -1.10728e-05 0.0
0.138891 -1.53571e-05 0.0
0.17438 -3.83927e-05 0.0
0.201606 -5.25267e-05 0.0
0.235787 -6.40633e-05 0.0
0.244085 -6.7017e-05 0.0
0.223602 -8.5843e-05 0.0
0.249751 -7.00058e-05 0.0
0.249044 -7.7992e-05 0.0
0.231404 -3.31676e-05 0.0
0.244081 -6.62255e-05 0.0
0 0 0.0
0.0361084 -5.4636e-06 0.0
0.0736129 -1.5246e-05 0.0
0.0622495 -1.66952e-05 0.0
0.17437 -3.78331e-05 0.0
0.220162 -5.24876e-05 0.0
0.201594 -5.26049e-05 0.0
0.115548 -2.27467e-05 0.0
0.146676 -3.51808e-05 0.0
0 0 0.0
0.0360873 -3.68746e-06 0.0
0.0693659 -1.1935e-05 0.0
0.0899832 -2.36318e-05 0.0
0.109391 -3.19258e-05 0.0
0.146692 -3.44958e-05 0.0
0.178902 -6.43006e-05 0.0
0.206293 -8.39872e-05 0.0
0.214501 -0.000113074 0.0
0.238527 -0.000100324 0.0
0.24735 -0.000104448 0.0
0.229607 -0.000127618 0.0
0.226323 -9.01844e-05 0.0
0.249983 -0.000104959 0.0
0.246426 -0.000102124 0.0
0.23668 -9.6177e-05 0.0
0 0 0.0
0.0322511 -6.17046e-06 0.0
0.095697 -3.62333e-05 0.0
0.06943 -2.7308e-05 0.0
0.178876 -6.3327e-05 0.0
0.206269 -8.46217e-05 0.0
0.127476 -4.88817e-05 0.0
0.165873 -8.00898e-05 0.0
0.152325 -5.74259e-05 0.0
0 0 0.0
0.0360793 -5.29287e-06 0.0
0.0621954 -1.65234e-05 0.0
0.0956295 -3.69311e-05 0.0
0.127525 -4.93458e-05 0.0
0.156661 -7.15963e-05 0.0
0.115601 -5.66155e-05 0.0
0.193626 -0.000117859 0.0
0.218141 -0.000149024 0.0
0.24094 -0.000135943 0.0
0.247737 -0.000140963 0.0
0.25 -0.000142495 0.0
0.234398 -0.000172431 0.0
0.229576 -0.000125855 0.0
0.247727 -0.000140652 0.0
0.240919 -0.000135701 0.0
0 0 0.0
0.034488 -8.5363e-06 0.0
0.103122 -5.56041e-05 0.0
0.062304 -2.76541e-05 0.0
0.189727 -0.000100231 0.0
0.212988 -0.000139829 0.0
0.170534 -0.000108503 0.0
0.144329 -8.05999e-05 0.0
0 0 0.0
0.0398975 -9.09769e-06 0.0
0.0997856 -5.05905e-05 0.0
0.0693205 -2.68731e-05 0.0
0.170625 -0.000108616 0.0
0.144422 -8.23386e-05 0.0
0.124378 -8.34475e-05 0.0
0.18365 -0.000137185 0.0
0.204132 -0.000164154 0.0
0.222038 -0.000193176 0.0
0.249109 -0.00018691 0.0
0.244027 -0.000181949 0.0
0.24912 -0.000186921 0.0
0.238551 -0.000219318 0.0
0.234353 -0.000171413 0.0
0.244883 -0.000196985 0.0
0 0 0.0
0.0322929 -9.03661e-06 0.0
0.0940751 -5.84245e-05 0.0
0.0652186 -3.49545e-05 0.0
0.196696 -0.000149972 0.0
0.217871 -0.000184129 0.0
0.177437 -0.000152167 0.0
0.148689 -0.000106318 0.0
0.120328 -7.4515e-05 0.0
0 0 0.0
0.03439 -8.62705e-06 0.0
0.0716433 -3.51035e-05 0.0
0.152425 -0.000119173 0.0
0.127615 -0.000103525 0.0
0.187579 -0.000169965 0.0
0.211951 -0.000211578 0.0
0.248605 -0.000231823 0.0
0.225685 -0.000239625 0.0
0.249783 -0.000233505 0.0
0.246474 -0.000229586 0.0
0.242064 -0.000268469 0.0
0.23849 -0.000218691 0.0
0 0 0.0
0.0338755 -1.13194e-05 0.0
0.0999941 -7.79442e-05 0.0
0.0695465 -4.65104e-05 0.0
0.20626 -0.000198113 0.0
0.222404 -0.000230831 0.0
0.189975 -0.000205761 0.0
0.168253 -0.000166296 0.0
0.143003 -0.000127674 0.0
0.124193 -9.43191e-05 0.0
0.0970831 -6.34281e-05 0.0
0 0 0.0
0.0360199 -1.09797e-05 0.0
0.0673136 -3.76069e-05 0.0
0.130335 -0.000125003 0.0
0.168483 -0.000167086 0.0
0.199473 -0.000217845 0.0
0.218379 -0.000255543 0.0
0.241992 -0.000269098 0.0
0.25 -0.000280883 0.0
0.247989 -0.000277609 0.0
0.229082 -0.000288232 0.0
0.244938 -0.000319432 0.0
0.248741 -0.000294678 0.0
0.234445 -0.000275636 0.0
0 0 0.0
0.0362341 -1.45862e-05 0.0
0.12266 -0.000127993 0.0
0.071231 -5.49869e-05 0.0
0.208349 -0.000242065 0.0
0.225126 -0.000287905 0.0
0.198047 -0.000251201 0.0
0.177725 -0.000208144 0.0
0.146525 -0.000153641 0.0
0.119131 -0.000107473 0.0
0.09705 -7.19164e-05 0.0
0 0 0.0
0.0349374 -1.22921e-05 0.0
0.0672761 -4.23284e-05 0.0
0.152302 -0.000174539 0.0
0.178018 -0.000213073 0.0
0.210116 -0.000269412 0.0
0.244858 -0.0003193 0.0
0.24942 -0.000328017 0.0
0.232226 -0.000338781 0.0
0.244197 -0.000363187 0.0
0.249988 -0.000387493 0.0
0.249132 -0.000344591 0.0
0.235912 -0.000329786 0.0
0.212964 -0.00032866 0.0
0 0 0.0
0.0371633 -1.71779e-05 0.0
0.141111 -0.000177997 0.0
0.0999592 -0.000107778 0.0
0.0666017 -5.35882e-05 0.0
0.213628 -0.000294225 0.0
0.186606 -0.000256182 0.0
0.165083 -0.000208602 0.0
0.122239 -0.000128779 0.0
0.0928645 -7.8847e-05 0.0
0 0 0.0
0.0349074 -1.37235e-05 0.0
0.0642246 -4.49508e-05 0.0
0.165598 -0.000222937 0.0
0.186968 -0.000261944 0.0
0.158125 -0.000233142 0.0
0.247091 -0.000372857 0.0
0.248691 -0.000428217 0.0
0.231052 -0.00038019 0.0
0.240526 -0.000405666 0.0
0.248757 -0.000427912 0.0
0.240202 -0.000379139 0.0
0.229256 -0.000372387 0.0
0.199182 -0.000321683 0.0
0.218635 -0.000384257 0.0
0 0 0.0
0.0346512 -1.68563e-05 0.0
0.126171 -0.000172944 0.0
0.0681805 -6.05336e-05 0.0
0.0988215 -0.00011733 0.0
0.208082 -0.000336147 0.0
0.189759 -0.000293217 0.0
0.168125 -0.000243528 0.0
0.140618 -0.000176681 0.0
0.0954071 -9.37358e-05 0.0
0 0 0.0
0.0332511 -1.40449e-05 0.0
0.0660536 -5.35061e-05 0.0
0.183224 -0.00030389 0.0
0.159264 -0.000260781 0.0
0.244898 -0.00044132 0.0
0.24966 -0.000484244 0.0
0.235961 -0.000444514 0.0
0.244858 -0.000469747 0.0
0.249378 -0.000483193 0.0
0.23862 -0.000446688 0.0
0.21842 -0.000403751 0.0
0.203105 -0.000375002 0.0
0.223371 -0.000439065 0.0
0 0 0.0
0.0478086 -3.36024e-05 0.0
0.127922 -0.000197073 0.0
0.0904261 -0.000110213 0.0
0.202607 -0.000361062 0.0
0.177966 -0.000297176 0.0
0.147886 -0.000223339 0.0
0.118718 -0.000146737 0.0
0.0780246 -7.87714e-05 0.0
0 0 0.0
0.0342289 -1.65461e-05 0.0
0.187833 -0.000359531 0.0
0.160402 -0.00029004 0.0
0.246451 -0.000503842 0.0
0.249999 -0.000542749 0.0
0.24014 -0.000512783 0.0
0.247577 -0.000564962 0.0
0.239859 -0.000511964 0.0
0.227291 -0.000474037 0.0
0.209728 -0.000421879 0.0
0.227724 -0.00049801 0.0
0.21029 -0.000439991 0.0
0 0 0.0
0.0478724 -3.74968e-05 0.0
0.128017 -0.000219907 0.0
0.0905084 -0.000121165 0.0
0.187169 -0.000357353 0.0
0.159617 -0.000280452 0.0
0.0471951 -3.30008e-05 0.0
0.127082 -0.000194418 0.0
0.0895867 -0.000108032 0.0
0 0 0.0
0.187909 -0.000403838 0.0
0.160492 -0.000324505 0.0
0.24742 -0.000571068 0.0
0.249999 -0.000611053 0.0
0.240172 -0.000577806 0.0
0.247594 -0.000634812 0.0
0.227245 -0.000533203 0.0
0.239826 -0.000575966 0.0
0.187093 -0.000401094 0.0
0.209666 -0.000474211 0.0
0.227765 -0.000546477 0.0
0.210356 -0.000494421 0.0
0 0 0.0
0.0479426 -4.10781e-05 0.0
0.128123 -0.000244435 0.0
0.0906198 -0.00013583 0.0
0.126987 -0.000217817 0.0
0.15953 -0.000314484 0.0
0.0471354 -3.66089e-05 0.0
0.0894967 -0.00012007 0.0
0 0 0.0
0.187995 -0.000450915 0.0
0.160594 -0.00036169 0.0
0.247402 -0.000640446 0.0
0.249998 -0.000684186 0.0
0.227809 -0.00059936 0.0
0.240223 -0.000675511 0.0
0.247612 -0.000710314 0.0
0.2272 -0.000583278 0.0
0.23979 -0.000644669 0.0
0.18703 -0.000434725 0.0
0.209595 -0.000530092 0.0
0.210429 -0.000552702 0.0
0 0 0.0
0.0480251 -4.56263e-05 0.0
0.128261 -0.000274835 0.0
0.0907334 -0.000149913 0.0
0.126899 -0.000237901 0.0
0.159432 -0.000350064 0.0
0.0470628 -4.07042e-05 0.0
0.0893972 -0.000132618 0.0
0 0 0.0
0.160707 -0.000401244 0.0
0.188117 -0.000514173 0.0
0.247382 -0.000714854 0.0
0.249997 -0.000762804 0.0
0.240257 -0.000737839 0.0
0.227892 -0.000693448 0.0
0.247633 -0.000790538 0.0
0.239748 -0.000717835 0.0
0.227152 -0.000637993 0.0
0.186938 -0.000483275 0.0
0.209516 -0.00058944 0.0
0.210511 -0.000616047 0.0
0 0 0.0
0.048108 -5.02809e-05 0.0
0.128375 -0.000299584 0.0
0.0908587 -0.000165172 0.0
0.126784 -0.0002634 0.0
0.159323 -0.000388627 0.0
0 0 0.0
0.089286 -0.000146903 0.0
0.0469894 -4.48085e-05 0.0
0.188228 -0.000572433 0.0
0.160834 -0.000444866 0.0
0.22795 -0.000756711 0.0
0.247359 -0.000795629 0.0
0.249996 -0.000848181 0.0
0.24765 -0.000858491 0.0
0.240294 -0.000803244 0.0
0.239702 -0.000797137 0.0
0.227086 -0.000708823 0.0
0.186806 -0.000548782 0.0
0.209428 -0.000654376 0.0
0.210603 -0.000684076 0.0
0 0 0.0
0.0482018 -5.52134e-05 0.0
0.0909829 -0.000179595 0.0
0.128521 -0.00033027 0.0
0.126636 -0.000295478 0.0
0.159201 -0.000430264 0.0
0 0 0.0
0.0469014 -4.94721e-05 0.0
0.089177 -0.000160253 0.0
0.188322 -0.000618034 0.0
0.160976 -0.000492536 0.0
0.228011 -0.000825037 0.0
0.240364 -0.000929485 0.0
0.247333 -0.000883317 0.0
0.249994 -0.000940376 0.0
0.24767 -0.000930256 0.0
0.239649 -0.000882904 0.0
0.227013 -0.000785588 0.0
0.186718 -0.000592204 0.0
0.20933 -0.00072341 0.0
0.210706 -0.000759353 0.0
0 0 0.0
0.048306 -6.02964e-05 0.0
0.12871 -0.000370248 0.0
0.0911505 -0.000199828 0.0
0.126514 -0.00032183 0.0
0.159066 -0.000475509 0.0
0.0468131 -5.4048e-05 0.0
0 0 0.0
0.08903 -0.000178692 0.0
0.161134 -0.00054482 0.0
0.188491 -0.000701404 0.0
0.228128 -0.000948357 0.0
0.240422 -0.00103248 0.0
0.247695 -0.00103192 0.0
0.247289 -0.00102128 0.0
0.249991 -0.00104286 0.0
0.239591 -0.000978106 0.0
0.226901 -0.00089722 0.0
0.186557 -0.000669317 0.0
0.20922 -0.000799576 0.0
0.210819 -0.000841797 0.0
0 0 0.0
0.0484186 -6.55254e-05 0.0
0.0913188 -0.000218065 0.0
0.161309 -0.000600704 0.0
0.128867 -0.000401235 0.0
0.126358 -0.000355511 0.0
0.158947 -0.000514645 0.0
0.0467096 -6.02823e-05 0.0
0 0 0.0
0.0888951 -0.000196033 0.0
0.210926 -0.000919191 0.0
0.188608 -0.000759068 0.0
0.240472 -0.00112033 0.0
0.228223 -0.00105493 0.0
0.247737 -0.00119385 0.0
0.249987 -0.00115326 0.0
0.247261 -0.00110358 0.0
0.239525 -0.0010793 0.0
0.226824 -0.000972494 0.0
0.186449 -0.000720069 0.0
0.158753 -0.000579239 0.0
0.2091 -0.000880429 0.0
0 0 0.0
0.0914875 -0.000237347 0.0
0.0485507 -7.20687e-05 0.0
0.161465 -0.0006529 0.0
0.1291 -0.00045045 0.0
0.126186 -0.000393199 0.0
0 0 0.0
0.046595 -6.70846e-05 0.0
0.088715 -0.000219602 0.0
0.211045 -0.00100272 0.0
0.188819 -0.000865972 0.0
0.240525 -0.00121561 0.0
0.228329 -0.00117202 0.0
0.247759 -0.00129475 0.0
0.249979 -0.00127562 0.0
0.247231 -0.00119407 0.0
0.15861 -0.000623566 0.0
0.208988 -0.000954123 0.0
0.23945 -0.00118818 0.0
0.226739 -0.00105386 0.0
0.186294 -0.000792958 0.0
0 0 0.0
0.0486797 -7.78772e-05 0.0
0.0916899 -0.000260056 0.0
0.161681 -0.000723139 0.0
0.12933 -0.000498175 0.0
0.0885321 -0.000243038 0.0
0.125968 -0.000440841 0.0
0 0 0.0
0.0464618 -7.53224e-05 0.0
0.211196 -0.00111428 0.0
0.189015 -0.000963797 0.0
0.240597 -0.00134815 0.0
0.228445 -0.00130354 0.0
0.247783 -0.00140337 0.0
0.249971 -0.00141106 0.0
0.247164 -0.00137331 0.0
0.158419 -0.000685149 0.0
0.239367 -0.00130857 0.0
0.208866 -0.00103023 0.0
0.226586 -0.00119818 0.0
0.18608 -0.000893636 0.0
0 0 0.0
0.0919402 -0.000289656 0.0
0.0488272 -8.51888e-05 0.0
0.161973 -0.000821349 0.0
0.129587 -0.000553114 0.0
0.0883528 -0.000266777 0.0
0.125759 -0.00048754 0.0
0 0 0.0
0.0463185 -8.43912e-05 0.0
0.18923 -0.00107664 0.0
0.211365 -0.00124204 0.0
0.240674 -0.00149916 0.0
0.247815 -0.00155218 0.0
0.228572 -0.00145118 0.0
0.249957 -0.00155666 0.0
0.247109 -0.00151662 0.0
0.239273 -0.00143629 0.0
0.249513 -0.00168037 0.0
0.158209 -0.000750674 0.0
0.226454 -0.00131468 0.0
0.208658 -0.00115908 0.0
0.185938 -0.000956076 0.0
0 0 0.0
0.092172 -0.000318903 0.0
0.0490018 -9.46091e-05 0.0
0.162194 -0.000899735 0.0
0.129874 -0.000617793 0.0
0.0881352 -0.000294967 0.0
0.125566 -0.000528999 0.0
0 0 0.0
0.046169 -9.37851e-05 0.0
0.189472 -0.00120575 0.0
0.211552 -0.00138836 0.0
0.240751 -0.00166443 0.0
0.228711 -0.00162177 0.0
0.247854 -0.0018045 0.0
0.249122 -0.00166094 0.0
0.243744 -0.00159446 0.0
0.233384 -0.00148413 0.0
0.249923 -0.00180962 0.0
0.157983 -0.000818758 0.0
0.218045 -0.00133645 0.0
0.203262 -0.0012074 0.0
0.185683 -0.00106336 0.0
0 0 0.0
0.0924554 -0.000357918 0.0
0.0491839 -0.000104493 0.0
0.162498 -0.00101311 0.0
0.1302 -0.000696548 0.0
0.125284 -0.000586614 0.0
0.0878966 -0.000324845 0.0
0 0 0.0
0.0459869 -0.000103797 0.0
0.189742 -0.00135756 0.0
0.211758 -0.00155703 0.0
0.247874 -0.00199998 0.0
0.228859 -0.0018143 0.0
0.240839 -0.00185536 0.0
0.246999 -0.00176196 0.0
0.23909 -0.00166431 0.0
0.226202 -0.00152259 0.0
0.249883 -0.0019988 0.0
0.157737 -0.000888902 0.0
0.208343 -0.00134084 0.0
0.185454 -0.0011533 0.0
0 0 0.0
0.049381 -0.000116892 0.0
0.0927771 -0.000407484 0.0
0.130511 -0.000776638 0.0
0.190041 -0.00153358 0.0
0.162841 -0.00114847 0.0
0.125017 -0.000636354 0.0
0.0876371 -0.000354971 0.0
0.0457931 -0.000114551 0.0
0 0 0.0
0.22899 -0.00199591 0.0
0.211984 -0.00175502 0.0
0.247888 -0.00217157 0.0
0.240922 -0.00207348 0.0
0.226023 -0.00165589 0.0
0.246906 -0.00193607 0.0
0.238949 -0.00182003 0.0
0.249835 -0.00220775 0.0
0.185209 -0.00124036 0.0
0.157417 -0.000966905 0.0
0.20806 -0.00148557 0.0
0 0 0.0
0.0496165 -0.000135645 0.0
0.0931879 -0.000474929 0.0
0.130921 -0.000890596 0.0
0.190286 -0.00169228 0.0
0.163307 -0.00135348 0.0
0.124733 -0.000682117 0.0
0.0873321 -0.00038516 0.0
0.0455852 -0.000124049 0.0
0 0 0.0
0.124428 -0.000722898 0.0
0.229125 -0.0021913 0.0
0.212307 -0.00206523 0.0
0.241038 -0.00242947 0.0
0.247894 -0.00235506 0.0
0.225742 -0.00184441 0.0
0.238789 -0.00198425 0.0
0.246796 -0.00212763 0.0
0.24976 -0.00243966 0.0
0.184938 -0.00132467 0.0
0.157124 -0.00103044 0.0
0.207812 -0.00160034 0.0
0 0 0.0
0.0498893 -0.000157053 0.0
0.0936232 -0.000554021 0.0
0.131389 -0.00103264 0.0
0.190646 -0.00192893 0.0
0.163753 -0.0015615 0.0
0.0453572 -0.000134707 0.0
0.0870314 -0.000411048 0.0
0 0 0.0
0.124157 -0.000747592 0.0
0.229296 -0.00247495 0.0
0.212581 -0.00234782 0.0
0.241114 -0.00272273 0.0
0.247885 -0.00262439 0.0
0.225536 -0.00196705 0.0
0.238601 -0.0021595 0.0
0.249665 -0.00269697 0.0
0.246591 -0.00243422 0.0
0.184714 -0.00138137 0.0
0.15681 -0.001082 0.0
0.207534 -0.00170911 0.0
0 0 0.0
0.0502075 -0.000185116 0.0
0.0941303 -0.000650269 0.0
0.132011 -0.00123247 0.0
0.191141 -0.00228898 0.0
0.212873 -0.00267944 0.0
0.16425 -0.00181247 0.0
0.0451331 -0.00014129 0.0
0.0867208 -0.000430162 0.0
0 0 0.0
0.123825 -0.000768077 0.0
0.229531 -0.00291462 0.0
0.241167 -0.00299182 0.0
0.247858 -0.00292555 0.0
0.249568 -0.00291144 0.0
0.225311 -0.00208605 0.0
0.238368 -0.00235133 0.0
0.246402 -0.00266783 0.0
0.156472 -0.001121 0.0
0.184392 -0.0014522 0.0
0.207216 -0.00181523 0.0
0 0 0.0
0.0506099 -0.000221433 0.0
0.0947295 -0.000772787 0.0
0.132643 -0.00145078 0.0
0.191472 -0.00254965 0.0
0.213178 -0.00305504 0.0
0.164811 -0.00210963 0.0
0.0448871 -0.000146825 0.0
0.0864022 -0.000441389 0.0
0 0 0.0
0.156184 -0.00113501 0.0
0.0860863 -0.000440744 0.0
0.123428 -0.000773687 0.0
0.229705 -0.00331974 0.0
0.241206 -0.00327669 0.0
0.247768 -0.00342742 0.0
0.249456 -0.00313647 0.0
0.246231 -0.00286727 0.0
0.224995 -0.00223447 0.0
0.237981 -0.00263477 0.0
0.183936 -0.00152135 0.0
0.206912 -0.00190637 0.0
0.229851 -0.0036773 0.0
0 0 0.0
0.0510646 -0.000264114 0.0
0.133376 -0.00171238 0.0
0.0954319 -0.00092115 0.0
0.213506 -0.00350226 0.0
0.192068 -0.00305004 0.0
0.16544 -0.00245997 0.0
0.0446287 -0.000146858 0.0
0 0 0.0
0.183626 -0.0015567 0.0
0.155798 -0.00114422 0.0
0.123075 -0.00076634 0.0
0.044372 -0.000150402 0.0
0.0857713 -0.000433474 0.0
0.241244 -0.00368839 0.0
0.247686 -0.0037365 0.0
0.249256 -0.00347033 0.0
0.249077 -0.00374995 0.0
0.246023 -0.0030752 0.0
0.224618 -0.00239124 0.0
0.237621 -0.00285501 0.0
0.206567 -0.00198223 0.0
0.229974 -0.00407896 0.0
0.051581 -0.000313712 0.0
0 0 0.0
0.134083 -0.00196687 0.0
0.0962554 -0.00109209 0.0
0.213843 -0.0040097 0.0
0.192458 -0.00340303 0.0
0.16615 -0.00287122 0.0
0 0 0.0
0.183181 -0.00158334 0.0
0.1553 -0.00113025 0.0
0.122776 -0.000738975 0.0
0.0441436 -0.000147313 0.0
0.0854677 -0.000417907 0.0
0.24124 -0.00436103 0.0
0.247584 -0.00406416 0.0
0.248854 -0.00404274 0.0
0.245551 -0.00349921 0.0
0.224186 -0.00254503 0.0
0.237211 -0.00308599 0.0
0.205963 -0.0021003 0.0
0.230133 -0.00463549 0.0
0 0 0.0
0.0522236 -0.000376034 0.0
0.135031 -0.0023137 0.0
0.0971295 -0.00127482 0.0
0.166945 -0.00333985 0.0
0.214194 -0.00459497 0.0
0.193171 -0.00406795 0.0
0 0 0.0
0 0 0.0
0.182671 -0.00160322 0.0
0.154854 -0.00110528 0.0
0.122425 -0.000702641 0.0
0.0851863 -0.000395507 0.0
0.0439135 -0.000141553 0.0
0.241192 -0.00491265 0.0
0.247391 -0.00454449 0.0
0.236818 -0.00328597 0.0
0.248505 -0.00447426 0.0
0.245118 -0.00383777 0.0
0.22367 -0.00270908 0.0
0.205406 -0.00218336 0.0
0.241119 -0.00541085 0.0
0.230251 -0.0052646 0.0
0.0529877 -0.000446969 0.0
0.0982508 -0.00150128 0.0
0.136124 -0.00271654 0.0
0.167658 -0.00377544 0.0
0.21456 -0.00525162 0.0
0.193629 -0.00454123 0.0
0 0 0.0
0 0 0.0
0.154477 -0.00106987 0.0
0.181965 -0.00160648 0.0
0.0849532 -0.000366275 0.0
0.122024 -0.000648563 0.0
0.0436868 -0.00013593 0.0
0.247017 -0.0053162 0.0
0.24806 -0.00495847 0.0
0.20478 -0.00226297 0.0
0.236369 -0.00349005 0.0
0.244737 -0.00412297 0.0
0.222845 -0.0029361 0.0
0.241017 -0.00593048 0.0
0.230399 -0.00623754 0.0
0.214927 -0.00599888 0.0
0.0539429 -0.00053513 0.0
0.0995574 -0.00177217 0.0
0.137584 -0.00324645 0.0
0.168647 -0.00436936 0.0
0.194473 -0.0054153 0.0
0 0 0.0
0 0 0.0
0.153884 -0.00101478 0.0
0.181317 -0.00161275 0.0
0.0847062 -0.000329299 0.0
0.12169 -0.000597624 0.0
0.0434828 -0.000126832 0.0
0.24429 -0.00442946 0.0
0.24753 -0.00548047 0.0
0.24664 -0.00594886 0.0
0.204062 -0.00234508 0.0
0.235723 -0.00377315 0.0
0.222106 -0.00313138 0.0
0.180613 -0.00161876 0.0
0.24073 -0.0069802 0.0
0 0 0.0
0.230438 -0.00707851 0.0
0.195211 -0.00622746 0.0
0.215296 -0.00682779 0.0
0.0549701 -0.000629437 0.0
0.138839 -0.00370576 0.0
0.101248 -0.00212279 0.0
0.169984 -0.00521398 0.0
0 0 0.0
0 0 0.0
0 0 0.0
0 0 0.0
0 0 0.0
0.0433157 -0.000117781 0.0
0.121371 -0.000549158 0.0
0.153356 -0.000974644 0.0
0.0845095 -0.000304512 0.0
0.243619 -0.00484414 0.0
0.246882 -0.00606556 0.0
0.246195 -0.00664163 0.0
0.221418 -0.00328363 0.0
0.203242 -0.00243507 0.0
0.234623 -0.00420793 0.0
0.202471 -0.00251816 0.0
0.180028 -0.00162566 0.0
0.240417 -0.0078454 0.0
0.230449 -0.00799046 0.0
0 0 0.0
9.43724e-05 -3.70292e-05 0.0
0 0 0.0
-0.000376714 0.0022651 0.0
0.215676 -0.00776992 0.0
0.195816 -0.00689184 0.0
0.0562988 -0.000755364 0.0
0.140486 -0.00430292 0.0
0.103042 -0.00249432 0.0
0.171267 -0.00602358 0.0
0 0 0.0
0 0 0.0
0 0 0.0
-0.000283987 0.00125552 0.0
-3.27603e-05 -9.21479e-05 0.0
1.35196e-05 -3.32536e-05 0.0
0 0 0.0
0.0431409 -0.000112847 0.0
0.121102 -0.000511977 0.0
0.152802 -0.000944252 0.0
0.0843064 -0.000280301 0.0
0.242833 -0.00531198 0.0
0.246115 -0.00670697 0.0
0.245635 -0.00740161 0.0
0.220646 -0.00346226 0.0
0.233878 -0.00449743 0.0
0.201621 -0.00260827 0.0
0.178989 -0.00166175 0.0
0.240033 -0.00878677 0.0
0.233268 -0.00891586 0.0
0.223801 -0.00881297 0.0
0 0 0.0
0.000111571 1.31418e-05 0.0
0 0 0.0
0 0 0.0
-0.00132748 0.00504363 0.0
-0.00129521 0.00335245 0.0
0.211605 -0.00850462 0.0
0.196663 -0.00788183 0.0
0.104906 -0.00288594 0.0
0.0577224 -0.000902293 0.0
0.142354 -0.00500046 0.0
0.172676 -0.00694111 0.0
0 0 0.0
-0.00047956 0.00064884 0.0
-0.000891618 0.00176449 0.0
-0.000312916 0.000264133 0.0
-0.000289869 0.000261971 0.0
0 0 0.0
0.0429794 -0.000109855 0.0
0.120796 -0.000484506 0.0
0.152227 -0.000922749 0.0
0.0841343 -0.000268119 0.0
0.241909 -0.00582109 0.0
0.245215 -0.00740478 0.0
0.244956 -0.00823517 0.0
0.219202 -0.00378845 0.0
0.233049 -0.00479244 0.0
0.200514 -0.00274933 0.0
0.151638 -0.000940526 0.0
0.178071 -0.00172471 0.0
0.239646 -0.00959952 0.0
0.230333 -0.00974528 0.0
0.216294 -0.00964688 0.0
0 0 0.0
-0.000191233 0.000148496 0.0
0 0 0.0
0 0 0.0
0 0 0.0
0 0 0.0
-0.00235805 0.00356383 0.0
-0.00036396 0.004304 0.0
-0.00134376 0.00649238 0.0
-0.00313959 0.00849472 0.0
-0.00267906 0.00585952 0.0
0 0 0.0
-5.29376e-05 0.00625027 0.0
0.197789 -0.00932627 0.0
0.173916 -0.00779698 0.0
0 0 0.0
0.0595921 -0.00110753 0.0
0.107277 -0.00341509 0.0
0.14482 -0.00600225 0.0
0 0 0.0
0 0 0.0
-0.00144596 0.00175155 0.0
-0.00112962 0.00100516 0.0