# vtk DataFile Version 3.0
Mesh NS-CD Problem
ASCII
DATASET UNSTRUCTURED_GRID
POINTS 10839 float
-2 0.3 0.0
-2 0.4 0.0
-2 0.35 0.0
-2 0.45 0.0
-2 0.5 0.0
-2 0.55 0.0
-2 0 0.0
-2 0.05 0.0
-2 0.85 0.0
-2 0.9 0.0
-2 0.1 0.0
-2 0.15 0.0
-2 0.25 0.0
-2 0.2 0.0
-1.96653 0.266667 0.0
-1.96524 0.415385 0.0
-1.96485 0.315 0.0
-1.96348 0.363636 0.0
-1.96414 0.464286 0.0
-2 0.6 0.0
-1.96538 0.584615 0.0
-1.96538 0.538462 0.0
-1.94979 0 0.0
-1.96653 0.0666666 0.0
-1.93306 0.0333333 0.0
-2 0.8 0.0
-2 0.75 0.0
-2 0.7 0.0
-2 0.65 0.0
-1.96249 0.7375 0.0
-1.96666 0.833333 0.0
-2 1 0.0
-2 0.95 0.0
-1.96249 0.8875 0.0
-1.96666 0.933333 0.0
-1.96234 0.1125 0.0
-1.96653 0.166667 0.0
-1.93724 0.225 0.0
-1.92971 0.28 0.0
-1.93048 0.380769 0.0
-1.93048 0.423077 0.0
-1.89958 0.3375 0.0
-1.9292 0.484203 0.0
-1.92117 0.530907 0.0
-1.96363 0.636364 0.0
-1.93076 0.576923 0.0
-1.89958 0 0.0
-1.88703 0.0375 0.0
-1.90963 0.08 0.0
-1.86611 0.0666666 0.0
-1.93749 0.775 0.0
-1.93635 0.672727 0.0
-1.92999 0.72 0.0
-1.93332 0.866667 0.0
-1.92856 0.821429 0.0
-1.94999 1 0.0
-1.92499 0.9625 0.0
-1.92499 0.925 0.0
-1.89998 0.9 0.0
-1.89958 0.125 0.0
-1.92827 0.178571 0.0
-1.89958 0.233333 0.0
-1.89045 0.290909 0.0
-1.86096 0.311538 0.0
-1.89241 0.392857 0.0
-1.89334 0.448489 0.0
-1.85655 0.357143 0.0
-1.89614 0.653846 0.0
-1.89427 0.504121 0.0
-1.8952 0.559753 0.0
-1.89614 0.615385 0.0
-1.84937 0 0.0
-1.83264 0.0333333 0.0
-1.85655 0.107143 0.0
-1.81172 0.075 0.0
-1.89998 0.766667 0.0
-1.89089 0.709091 0.0
-1.87498 0.85 0.0
-1.85998 0.79 0.0
-1.88748 0.8125 0.0
-1.89998 1 0.0
-1.88748 0.9625 0.0
-1.86664 0.933333 0.0
-1.85712 0.892857 0.0
-1.87448 0.15 0.0
-1.86611 0.194444 0.0
-1.83264 0.133333 0.0
-1.83264 0.2625 0.0
-1.82068 0.321429 0.0
-1.85664 0.404762 0.0
-1.85674 0.452381 0.0
-1.85683 0.5 0.0
-1.81184 0.375 0.0
-1.85712 0.642857 0.0
-1.85693 0.547619 0.0
-1.85702 0.595238 0.0
-1.79917 0 0.0
-1.78482 0.0357143 0.0
-1.79917 0.116667 0.0
-1.76569 0.0666666 0.0
-1.85452 0.745455 0.0
-1.82689 0.692308 0.0
-1.81815 0.781818 0.0
-1.82497 0.825 0.0
-1.84997 1 0.0
-1.8333 0.958333 0.0
-1.81247 0.8875 0.0
-1.81247 0.925 0.0
-1.81742 0.218182 0.0
-1.82427 0.175 0.0
-1.77634 0.145455 0.0
-1.79144 0.242308 0.0
-1.78482 0.285714 0.0
-1.77469 0.332653 0.0
-1.81215 0.529762 0.0
-1.81194 0.422619 0.0
-1.81203 0.470238 0.0
-1.76714 0.392857 0.0
-1.81234 0.625 0.0
-1.79732 0.571429 0.0
-1.74896 0 0.0
-1.73222 0.0333333 0.0
-1.75398 0.105 0.0
-1.71883 0.07 0.0
-1.79227 0.730769 0.0
-1.78007 0.679121 0.0
-1.75765 0.769231 0.0
-1.78178 0.818182 0.0
-1.78996 0.86 0.0
-1.79996 1 0.0
-1.78568 0.964286 0.0
-1.76663 0.922222 0.0
-1.76569 0.1875 0.0
-1.73222 0.15 0.0
-1.74896 0.25 0.0
-1.73714 0.304762 0.0
-1.76743 0.537202 0.0
-1.72869 0.343878 0.0
-1.76732 0.485119 0.0
-1.76723 0.440476 0.0
-1.72243 0.410714 0.0
-1.76757 0.607143 0.0
-1.69875 0 0.0
-1.68369 0.035 0.0
-1.69875 0.1125 0.0
-1.66528 0.075 0.0
-1.74341 0.708974 0.0
-1.73324 0.665934 0.0
-1.70441 0.74478 0.0
-1.71423 0.785714 0.0
-1.72303 0.826923 0.0
-1.74541 0.854545 0.0
-1.74541 0.890909 0.0
-1.74996 1 0.0
-1.73745 0.9625 0.0
-1.71359 0.927273 0.0
-1.68716 0.153846 0.0
-1.7131 0.214286 0.0
-1.70725 0.275 0.0
-1.69712 0.321939 0.0
-1.72279 0.589286 0.0
-1.72261 0.5 0.0
-1.7227 0.544643 0.0
-1.6827 0.355102 0.0
-1.67773 0.428571 0.0
-1.70763 0.464286 0.0
-1.70369 0.62449 0.0
-1.64854 0 0.0
-1.63181 0.0375 0.0
-1.64137 0.142857 0.0
-1.61764 0.0769231 0.0
-1.69458 0.703846 0.0
-1.67471 0.657437 0.0
-1.66143 0.727637 0.0
-1.67125 0.768571 0.0
-1.67851 0.821429 0.0
-1.68841 0.861538 0.0
-1.70904 0.890909 0.0
-1.69995 1 0.0
-1.68176 0.963636 0.0
-1.67267 0.927273 0.0
-1.65427 0.187143 0.0
-1.66718 0.231429 0.0
-1.66554 0.3 0.0
-1.67802 0.571429 0.0
-1.67792 0.523809 0.0
-1.6367 0.366327 0.0
-1.63682 0.423469 0.0
-1.62568 0.502976 0.0
-1.6629 0.470238 0.0
-1.65254 0.618367 0.0
-1.6059 0.307143 0.0
-1.59833 0 0.0
-1.58288 0.0384615 0.0
-1.60563 0.169643 0.0
-1.58179 0.112271 0.0
-1.56964 0.0714286 0.0
-1.64574 0.690385 0.0
-1.62827 0.751429 0.0
-1.63371 0.791071 0.0
-1.64279 0.857143 0.0
-1.65378 0.896154 0.0
-1.64994 1 0.0
-1.6363 0.963636 0.0
-1.61916 0.930769 0.0
-1.61345 0.209107 0.0
-1.62126 0.248571 0.0
-1.56989 0.196429 0.0
-1.63324 0.553571 0.0
-1.58846 0.535714 0.0
-1.59408 0.361905 0.0
-1.59161 0.402211 0.0
-1.58832 0.464286 0.0
-1.61504 0.598581 0.0
-1.59683 0.64359 0.0
-1.57899 0.274107 0.0
-1.56176 0.322381 0.0
-1.54812 0 0.0
-1.53378 0.0357143 0.0
-1.54593 0.147619 0.0
-1.53385 0.0732143 0.0
-1.53393 0.110714 0.0
-1.58522 0.704286 0.0
-1.58709 0.745 0.0
-1.58896 0.785714 0.0
-1.60695 0.830357 0.0
-1.60707 0.892857 0.0
-1.59993 1 0.0
-1.58454 0.965385 0.0
-1.57135 0.928571 0.0
-1.55209 0.241071 0.0
-1.5291 0.198214 0.0
-1.56936 0.570918 0.0
-1.54369 0.517857 0.0
-1.5464 0.380952 0.0
-1.54564 0.427721 0.0
-1.54488 0.47449 0.0
-1.55026 0.606122 0.0
-1.54222 0.677143 0.0
-1.52943 0.282857 0.0
-1.52143 0.33619 0.0
-1.49792 0 0.0
-1.49802 0.05 0.0
-1.49822 0.15 0.0
-1.49312 0.1 0.0
-1.5423 0.717143 0.0
-1.54419 0.767857 0.0
-1.54727 0.819048 0.0
-1.57122 0.861905 0.0
-1.53553 0.914286 0.0
-1.54992 1 0.0
-1.53563 0.964286 0.0
-1.49842 0.25 0.0
-1.48831 0.2 0.0
-1.5214 0.558929 0.0
-1.49891 0.5 0.0
-1.49871 0.4 0.0
-1.47631 0.45 0.0
-1.49911 0.6 0.0
-1.49921 0.65 0.0
-1.49931 0.7 0.0
-1.48111 0.35 0.0
-1.48351 0.3 0.0
-1.44771 0 0.0
-1.44782 0.05 0.0
-1.44804 0.15 0.0
-1.44793 0.1 0.0
-1.49941 0.75 0.0
-1.49951 0.8 0.0
-1.49981 0.95 0.0
-1.49961 0.85 0.0
-1.49971 0.9 0.0
-1.49991 1 0.0
-1.44826 0.25 0.0
-1.43815 0.2 0.0
-1.47151 0.55 0.0
-1.44881 0.5 0.0
-1.44859 0.4 0.0
-1.42619 0.45 0.0
-1.44913 0.65 0.0
-1.44902 0.6 0.0
-1.44935 0.75 0.0
-1.44924 0.7 0.0
-1.43972 0.35 0.0
-1.43336 0.3 0.0
-1.3975 0 0.0
-1.39762 0.05 0.0
-1.39786 0.15 0.0
-1.39274 0.1 0.0
-1.44957 0.85 0.0
-1.44946 0.8 0.0
-1.4523 0.95 0.0
-1.44968 0.9 0.0
-1.4499 1 0.0
-1.3981 0.25 0.0
-1.38798 0.2 0.0
-1.42141 0.55 0.0
-1.3987 0.5 0.0
-1.39834 0.35 0.0
-1.37845 0.4 0.0
-1.37607 0.45 0.0
-1.40784 0.65 0.0
-1.39894 0.6 0.0
-1.41185 0.75 0.0
-1.39918 0.7 0.0
-1.38322 0.3 0.0
-1.34729 0 0.0
-1.34492 0.05 0.0
-1.34018 0.15 0.0
-1.34255 0.1 0.0
-1.40707 0.85 0.0
-1.39941 0.8 0.0
-1.39977 0.95 0.0
-1.39965 0.9 0.0
-1.39989 1 0.0
-1.33781 0.2 0.0
-1.33544 0.25 0.0
-1.37131 0.55 0.0
-1.34859 0.5 0.0
-1.33833 0.4 0.0
-1.3307 0.35 0.0
-1.32595 0.45 0.0
-1.34885 0.6 0.0
-1.36655 0.65 0.0
-1.36179 0.75 0.0
-1.34911 0.7 0.0
-1.33307 0.3 0.0
-1.29708 0 0.0
-1.29722 0.05 0.0
-1.2975 0.15 0.0
-1.29236 0.1 0.0
-1.35703 0.85 0.0
-1.34937 0.8 0.0
-1.34988 1 0.0
-1.34962 0.9 0.0
-1.35226 0.95 0.0
-1.28528 0.25 0.0
-1.28764 0.2 0.0
-1.28931 0.35 0.0
-1.32121 0.55 0.0
-1.29848 0.5 0.0
-1.28709 0.45 0.0
-1.2982 0.4 0.0
-1.29876 0.6 0.0
-1.31647 0.65 0.0
-1.29918 0.75 0.0
-1.29904 0.7 0.0
-1.28292 0.3 0.0
-1.24687 0 0.0
-1.24702 0.05 0.0
-1.24717 0.1 0.0
-1.24732 0.15 0.0
-1.29946 0.85 0.0
-1.29932 0.8 0.0
-1.29987 1 0.0
-1.29974 0.95 0.0
-1.30462 0.9 0.0
-1.24762 0.25 0.0
-1.23747 0.2 0.0
-1.24792 0.35 0.0
-1.22807 0.4 0.0
-1.27111 0.55 0.0
-1.24837 0.5 0.0
-1.24822 0.45 0.0
-1.24867 0.6 0.0
-1.26639 0.65 0.0
-1.26167 0.75 0.0
-1.24897 0.7 0.0
-1.23277 0.3 0.0
-1.19667 0 0.0
-1.19683 0.05 0.0
-1.18964 0.15 0.0
-1.19198 0.1 0.0
-1.25695 0.85 0.0
-1.24927 0.8 0.0
-1.25223 0.95 0.0
-1.24987 1 0.0
-1.24957 0.9 0.0
-1.1873 0.2 0.0
-1.18496 0.25 0.0
-1.18028 0.35 0.0
-1.17794 0.4 0.0
-1.1981 0.45 0.0
-1.19842 0.55 0.0
-1.19826 0.5 0.0
-1.19858 0.6 0.0
-1.19874 0.65 0.0
-1.19906 0.75 0.0
-1.1989 0.7 0.0
-1.18262 0.3 0.0
-1.14646 0 0.0
-1.14663 0.05 0.0
-1.1418 0.1 0.0
-1.13713 0.2 0.0
-1.14697 0.15 0.0
-1.20691 0.85 0.0
-1.20926 0.8 0.0
-1.20221 0.95 0.0
-1.19986 1 0.0
-1.20456 0.9 0.0
-1.13997 0.3 0.0
-1.14731 0.25 0.0
-1.13781 0.4 0.0
-1.13014 0.35 0.0
-1.12548 0.45 0.0
-1.14815 0.5 0.0
-1.15962 0.55 0.0
-1.14849 0.6 0.0
-1.15745 0.65 0.0
-1.16155 0.75 0.0
-1.14917 0.8 0.0
-1.14883 0.7 0.0
-1.09625 0 0.0
-1.09661 0.1 0.0
-1.09393 0.05 0.0
-1.09697 0.2 0.0
-1.08929 0.15 0.0
-1.15687 0.85 0.0
-1.14985 1 0.0
-1.15219 0.95 0.0
-1.14951 0.9 0.0
-1.09733 0.3 0.0
-1.08465 0.25 0.0
-1.09769 0.4 0.0
-1.08 0.35 0.0
-1.08661 0.45 0.0
-1.09804 0.5 0.0
-1.12082 0.55 0.0
-1.10916 0.8 0.0
-1.10629 0.7 0.0
-1.0984 0.6 0.0
-1.11616 0.65 0.0
-1.11149 0.75 0.0
-1.04604 0 0.0
-1.04623 0.05 0.0
-1.04642 0.1 0.0
-1.0468 0.2 0.0
-1.03911 0.15 0.0
-1.09948 0.9 0.0
-1.0993 0.85 0.0
-1.09984 1 0.0
-1.09966 0.95 0.0
-1.04718 0.3 0.0
-1.03449 0.25 0.0
-1.04756 0.4 0.0
-1.02986 0.35 0.0
-1.04775 0.45 0.0
-1.04794 0.5 0.0
-1.04813 0.55 0.0
-1.05911 0.8 0.0
-1.04831 0.6 0.0
-1.06376 0.7 0.0
-1.0485 0.65 0.0
-1.04888 0.75 0.0
-0.995833 0 0.0
-0.991231 0.1 0.0
-0.996033 0.05 0.0
-0.986629 0.2 0.0
-0.98893 0.15 0.0
-1.05447 0.9 0.0
-1.04926 0.85 0.0
-1.04983 1 0.0
-1.04964 0.95 0.0
-0.984328 0.25 0.0
-0.99703 0.3 0.0
-0.997429 0.4 0.0
-0.997628 0.45 0.0
-0.979726 0.35 0.0
-0.997827 0.5 0.0
-0.998027 0.55 0.0
-0.998226 0.6 0.0
-0.961416 0.475 0.0
-1.00907 0.8 0.0
-0.998426 0.65 0.0
-0.998625 0.7 0.0
-1.01138 0.75 0.0
-0.945625 0 0.0
-0.946044 0.1 0.0
-0.943334 0.05 0.0
-0.946463 0.2 0.0
-0.938752 0.15 0.0
-1.00444 0.9 0.0
-1.00675 0.85 0.0
-0.999821 1 0.0
-1.00213 0.95 0.0
-0.93417 0.25 0.0
-0.946881 0.3 0.0
-0.9473 0.4 0.0
-0.929588 0.35 0.0
-0.925005 0.45 0.0
-0.960371 0.525 0.0
-0.959325 0.575 0.0
-0.958279 0.625 0.0
-0.922714 0.5 0.0
-0.959017 0.8 0.0
-0.957233 0.675 0.0
-0.952999 0.7125 0.0
-0.948766 0.75 0.0
-0.895417 0 0.0
-0.895855 0.1 0.0
-0.893136 0.05 0.0
-0.896294 0.2 0.0
-0.888573 0.15 0.0
-0.949184 0.85 0.0
-0.954415 0.9 0.0
-0.949812 1 0.0
-0.949603 0.95 0.0
-0.884011 0.25 0.0
-0.896733 0.3 0.0
-0.874887 0.45 0.0
-0.879449 0.35 0.0
-0.897171 0.4 0.0
-0.920423 0.55 0.0
-0.918132 0.6 0.0
-0.915841 0.65 0.0
-0.872606 0.5 0.0
-0.908968 0.8 0.0
-0.91355 0.7 0.0
-0.898707 0.75 0.0
-0.845208 0 0.0
-0.845438 0.05 0.0
-0.845667 0.1 0.0
-0.845896 0.15 0.0
-0.833853 0.25 0.0
-0.846126 0.2 0.0
-0.899146 0.85 0.0
-0.904386 0.9 0.0
-0.899584 0.95 0.0
-0.899804 1 0.0
-0.838062 0.35 0.0
[...]
POINT_DATA 10839
VECTORS Velocity float
0.21 0 0.0
0.24 0 0.0
0.2275 0 0.0
0.2475 0 0.0
0.25 0 0.0
0.2475 0 0.0
0 0 0.0
0.0475 0 0.0
0.1275 0 0.0
0.09 0 0.0
0.09 0 0.0
0.1275 0 0.0
0.1875 0 0.0
0.16 0 0.0
0.195557 -2.41838e-05 0.0
0.242841 -3.30097e-05 0.0
0.215776 -2.87933e-05 0.0
0.231406 -3.24653e-05 0.0
0.248725 -3.51484e-05 0.0
0.24 0 0.0
0.24284 -3.29354e-05 0.0
0.24852 -3.38486e-05 0.0
0 0 0.0
0.0622239 -4.20403e-06 0.0
0.032227 -2.77863e-06 0.0
0.16 0 0.0
0.1875 0 0.0
0.21 0 0.0
0.2275 0 0.0
0.193592 -2.7146e-05 0.0
0.138887 -1.50588e-05 0.0
0 0 0.0
0.0475 0 0.0
0.0998415 -1.04523e-05 0.0
0.0622205 -4.25111e-06 0.0
0.0998462 -1.09224e-05 0.0
0.138891 -1.51939e-05 0.0
0.17438 -3.8118e-05 0.0
0.201606 -5.22399e-05 0.0
0.235787 -6.38099e-05 0.0
0.244085 -6.67752e-05 0.0
0.223602 -8.55598e-05 0.0
0.249751 -6.9771e-05 0.0
0.249044 -7.77534e-05 0.0
0.231404 -3.2993e-05 0.0
0.244081 -6.59832e-05 0.0
0 0 0.0
0.0361081 -5.38215e-06 0.0
0.0736127 -1.50547e-05 0.0
0.0622493 -1.6506e-05 0.0
0.17437 -3.7555e-05 0.0
0.220162 -5.22262e-05 0.0
0.201594 -5.23165e-05 0.0
0.115548 -2.24969e-05 0.0
0.146676 -3.48832e-05 0.0
0 0 0.0
0.0360874 -3.62257e-06 0.0
0.069366 -1.17635e-05 0.0
0.0899834 -2.3372e-05 0.0
0.109391 -3.1633e-05 0.0
0.146692 -3.42104e-05 0.0
0.178902 -6.39631e-05 0.0
0.206293 -8.36818e-05 0.0
0.214501 -0.000112836 0.0
0.238527 -0.00010008 0.0
0.24735 -0.000104225 0.0
0.229607 -0.000127443 0.0
0.226323 -8.99065e-05 0.0
0.249983 -0.000104743 0.0
0.246426 -0.000101897 0.0
0.23668 -9.59248e-05 0.0
0 0 0.0
0.0322507 -6.08999e-06 0.0
0.0956968 -3.5947e-05 0.0
0.0694296 -2.70975e-05 0.0
0.178876 -6.29864e-05 0.0
0.206269 -8.43128e-05 0.0
0.127476 -4.8541e-05 0.0
0.165873 -7.97523e-05 0.0
0.152325 -5.70674e-05 0.0
0 0 0.0
0.0360795 -5.21268e-06 0.0
0.0621956 -1.63298e-05 0.0
0.0956297 -3.66229e-05 0.0
0.127525 -4.90123e-05 0.0
0.156661 -7.1253e-05 0.0
0.115601 -5.63076e-05 0.0
0.193627 -0.000117663 0.0
0.218142 -0.000148975 0.0
0.24094 -0.00013581 0.0
0.247737 -0.000140859 0.0
0.25 -0.000142401 0.0
0.234398 -0.000172526 0.0
0.229576 -0.00012568 0.0
0.247727 -0.000140549 0.0
0.240919 -0.000135571 0.0
0 0 0.0
0.0344874 -8.44397e-06 0.0
0.103121 -5.53529e-05 0.0
0.0623035 -2.74655e-05 0.0
0.189727 -9.99423e-05 0.0
0.212988 -0.000139729 0.0
0.170534 -0.000108275 0.0
0.144329 -8.03187e-05 0.0
0 0 0.0
0.039898 -8.98699e-06 0.0
0.0997859 -5.02902e-05 0.0
0.0693209 -2.66492e-05 0.0
0.170625 -0.000108404 0.0
0.144422 -8.20568e-05 0.0
0.124378 -8.3265e-05 0.0
0.18365 -0.000137143 0.0
0.204132 -0.000164267 0.0
0.222039 -0.000193493 0.0
0.249109 -0.000187102 0.0
0.244027 -0.000182103 0.0
0.24912 -0.00018711 0.0
0.238551 -0.000219846 0.0
0.234353 -0.000171513 0.0
0.244882 -0.00019728 0.0
0 0 0.0
0.0322921 -8.95059e-06 0.0
0.0940748 -5.82289e-05 0.0
0.065218 -3.47892e-05 0.0
0.196696 -0.000149993 0.0
0.217871 -0.000184387 0.0
0.177437 -0.000152307 0.0
0.148689 -0.000106165 0.0
0.120328 -7.42624e-05 0.0
0 0 0.0
0.0343907 -8.52468e-06 0.0
0.0716438 -3.48808e-05 0.0
0.152425 -0.000119128 0.0
0.127615 -0.000103513 0.0
0.187579 -0.00017025 0.0
0.211952 -0.000212181 0.0
0.248605 -0.000232457 0.0
0.225686 -0.000240473 0.0
0.249783 -0.000234145 0.0
0.246474 -0.00023019 0.0
0.242065 -0.000269596 0.0
0.23849 -0.000219231 0.0
0 0 0.0
0.0338746 -1.12316e-05 0.0
0.0999941 -7.78975e-05 0.0
0.0695461 -4.63822e-05 0.0
0.20626 -0.00019862 0.0
0.222404 -0.000231627 0.0
0.189974 -0.000206515 0.0
0.168253 -0.000166696 0.0
0.143003 -0.000127784 0.0
0.124193 -9.4203e-05 0.0
0.0970833 -6.3226e-05 0.0
0 0 0.0
0.0360207 -1.08705e-05 0.0
0.0673142 -3.74136e-05 0.0
0.130336 -0.000125237 0.0
0.168483 -0.000167507 0.0
0.199473 -0.000218642 0.0
0.218379 -0.000256707 0.0
0.241992 -0.000270263 0.0
0.25 -0.000282134 0.0
0.247989 -0.00027884 0.0
0.229082 -0.00028977 0.0
0.244938 -0.000321319 0.0
0.248741 -0.000296135 0.0
0.234445 -0.000276987 0.0
0 0 0.0
0.0362331 -1.44974e-05 0.0
0.122661 -0.000128415 0.0
0.0712307 -5.49232e-05 0.0
0.208349 -0.00024318 0.0
0.225125 -0.000289587 0.0
0.198047 -0.000252618 0.0
0.177724 -0.000209092 0.0
0.146524 -0.000154079 0.0
0.119131 -0.000107546 0.0
0.0970502 -7.17831e-05 0.0
0 0 0.0
0.0349384 -1.2181e-05 0.0
0.0672767 -4.21599e-05 0.0
0.152303 -0.000175272 0.0
0.178019 -0.000214037 0.0
0.210117 -0.000270886 0.0
0.244858 -0.000321246 0.0
0.24942 -0.000330025 0.0
0.232226 -0.00034117 0.0
0.244198 -0.000365821 0.0
0.249988 -0.000390563 0.0
0.249132 -0.00034684 0.0
0.235912 -0.000332047 0.0
0.212965 -0.000331141 0.0
0 0 0.0
0.0371621 -1.70954e-05 0.0
0.141113 -0.000178931 0.0
0.0999601 -0.000108111 0.0
0.0666016 -5.35548e-05 0.0
0.213627 -0.000296176 0.0
0.186605 -0.000257847 0.0
0.165082 -0.000209758 0.0
0.122239 -0.000129106 0.0
0.0928644 -7.88075e-05 0.0
0 0 0.0
0.0349086 -1.36111e-05 0.0
0.0642252 -4.48024e-05 0.0
0.165599 -0.000224288 0.0
0.186969 -0.00026363 0.0
0.158127 -0.000234802 0.0
0.247091 -0.000375725 0.0
0.248691 -0.000432144 0.0
0.231053 -0.000383349 0.0
0.240527 -0.000409153 0.0
0.248758 -0.00043177 0.0
0.240202 -0.000382257 0.0
0.229255 -0.000375666 0.0
0.199184 -0.000324265 0.0
0.218636 -0.000387705 0.0
0 0 0.0
0.03465 -1.67806e-05 0.0
0.126173 -0.000174 0.0
0.0681806 -6.05556e-05 0.0
0.098823 -0.000117804 0.0
0.208081 -0.000339092 0.0
0.189757 -0.000295589 0.0
0.168123 -0.000245288 0.0
0.140617 -0.000177581 0.0
0.0954066 -9.38308e-05 0.0
0 0 0.0
0.0332525 -1.39386e-05 0.0
0.066054 -5.33816e-05 0.0
0.183226 -0.000306465 0.0
0.159266 -0.000262916 0.0
0.244897 -0.000445654 0.0
0.24966 -0.000489344 0.0
0.235963 -0.000448849 0.0
0.244859 -0.000474447 0.0
0.249378 -0.000488122 0.0
0.238619 -0.00045134 0.0
0.218418 -0.000407952 0.0
0.203107 -0.000378546 0.0
0.223373 -0.000443464 0.0
0 0 0.0
0.0478078 -3.3532e-05 0.0
0.127925 -0.000198497 0.0
0.0904279 -0.000110625 0.0
0.202605 -0.000364678 0.0
0.177963 -0.000299889 0.0
0.147884 -0.000224977 0.0
0.118716 -0.00014741 0.0
0.0780241 -7.87738e-05 0.0
0 0 0.0
0.0342304 -1.64311e-05 0.0
0.187836 -0.00036305 0.0
0.160405 -0.000292662 0.0
0.246451 -0.000509488 0.0
0.25 -0.000549039 0.0
0.240141 -0.000518413 0.0
0.247578 -0.000571633 0.0
0.239858 -0.000518047 0.0
0.227289 -0.000479665 0.0
0.209726 -0.000426726 0.0
0.227726 -0.000503427 0.0
0.210293 -0.000444629 0.0
0 0 0.0
0.0478718 -3.74069e-05 0.0
0.128021 -0.000221687 0.0
0.090511 -0.000121667 0.0
0.187166 -0.000361205 0.0
0.159613 -0.000283086 0.0
0.0471962 -3.28685e-05 0.0
0.127079 -0.000195777 0.0
0.0895851 -0.000108282 0.0
0 0 0.0
0.187913 -0.000408131 0.0
0.160497 -0.000327669 0.0
0.247419 -0.000578204 0.0
0.249999 -0.000618785 0.0
0.240174 -0.000584621 0.0
0.247595 -0.000642799 0.0
0.227242 -0.000540258 0.0
0.239825 -0.000583544 0.0
0.187089 -0.000405934 0.0
0.209662 -0.000480298 0.0
0.227767 -0.000552787 0.0
0.210359 -0.000499929 0.0
0 0 0.0
0.0479422 -4.10258e-05 0.0
0.128129 -0.000246557 0.0
0.0906237 -0.000136477 0.0
0.126982 -0.000219467 0.0
0.159525 -0.000317747 0.0
0.0471365 -3.64519e-05 0.0
0.0894942 -0.000120379 0.0
0 0 0.0
0.188 -0.000455905 0.0
0.1606 -0.000365369 0.0
0.247401 -0.000649154 0.0
0.249999 -0.000693412 0.0
0.227812 -0.000606504 0.0
0.240226 -0.000683946 0.0
0.247614 -0.000719571 0.0
0.227196 -0.000591632 0.0
0.239788 -0.000653868 0.0
0.187024 -0.000440334 0.0
0.20959 -0.000537477 0.0
0.210433 -0.000558976 0.0
0 0 0.0
0.0480249 -4.56281e-05 0.0
0.128268 -0.000277411 0.0
0.0907386 -0.000150777 0.0
0.126893 -0.000239775 0.0
0.159425 -0.000353908 0.0
0.0470639 -4.04879e-05 0.0
0.0893937 -0.000132908 0.0
0 0 0.0
0.160714 -0.000405391 0.0
0.188124 -0.000519907 0.0
0.247381 -0.000725217 0.0
0.249998 -0.000773536 0.0
0.240261 -0.000746984 0.0
0.227898 -0.000701658 0.0
0.247636 -0.000801004 0.0
0.239746 -0.00072881 0.0
0.227147 -0.000647692 0.0
0.18693 -0.000489912 0.0
0.20951 -0.00059827 0.0
0.210517 -0.000622836 0.0
0 0 0.0
0.0481081 -5.03502e-05 0.0
0.128384 -0.00030254 0.0
0.0908654 -0.00016639 0.0
0.126776 -0.00026538 0.0
0.159313 -0.00039298 0.0
0 0 0.0
0.0892814 -0.000146996 0.0
0.0469907 -4.4485e-05 0.0
0.188236 -0.000578395 0.0
0.160843 -0.000449432 0.0
0.227956 -0.000765176 0.0
0.247358 -0.000807715 0.0
0.249998 -0.000860368 0.0
0.247654 -0.000869722 0.0
0.240299 -0.000812913 0.0
0.239699 -0.000810051 0.0
0.227081 -0.000720331 0.0
0.186795 -0.000556798 0.0
0.209419 -0.000664769 0.0
0.21061 -0.00069109 0.0
0 0 0.0
0.0482028 -5.55234e-05 0.0
0.0909911 -0.000181359 0.0
0.128532 -0.000333833 0.0
0.126625 -0.000297267 0.0
0.159189 -0.00043496 0.0
0 0 0.0
0.0469029 -4.89151e-05 0.0
0.0891713 -0.000159972 0.0
0.18833 -0.00062394 0.0
0.160986 -0.000497331 0.0
0.228019 -0.000833412 0.0
0.240371 -0.000939333 0.0
0.247333 -0.00089721 0.0
0.249997 -0.000953971 0.0
0.247675 -0.000942068 0.0
0.239646 -0.000898007 0.0
0.227006 -0.000799169 0.0
0.186705 -0.000601022 0.0
0.209319 -0.000735658 0.0
0.210714 -0.000765948 0.0
0 0 0.0
0.0483083 -6.09846e-05 0.0
0.128723 -0.000374729 0.0
0.0911611 -0.000202652 0.0
0.126501 -0.000323089 0.0
0.15905 -0.000480407 0.0
0.0468153 -5.31079e-05 0.0
0 0 0.0
0.089023 -0.000177469 0.0
0.161144 -0.000549557 0.0
0.188501 -0.000706508 0.0
0.228137 -0.000955313 0.0
0.240432 -0.00104142 0.0
0.247702 -0.00104396 0.0
0.24729 -0.00103818 0.0
0.249996 -0.00105761 0.0
0.239588 -0.000995776 0.0
0.226893 -0.000914397 0.0
0.186538 -0.000679806 0.0
0.209207 -0.000814118 0.0
0.210829 -0.000846974 0.0
0 0 0.0
0.0484233 -6.69411e-05 0.0
0.0913315 -0.000222372 0.0
0.161319 -0.000604999 0.0
0.128879 -0.00040648 0.0
0.126341 -0.000355651 0.0
0.158928 -0.000519518 0.0
0.0467135 -5.86077e-05 0.0
0 0 0.0
0.0888874 -0.000193453 0.0
0.210936 -0.00092219 0.0
0.188617 -0.000762681 0.0
0.240484 -0.00112766 0.0
0.228235 -0.00105873 0.0
0.24775 -0.00120529 0.0
0.249995 -0.00116908 0.0
0.247264 -0.00112223 0.0
0.239522 -0.00110027 0.0
0.226814 -0.000992523 0.0
0.186426 -0.000731839 0.0
0.158726 -0.000584076 0.0
0.209082 -0.000898137 0.0
0 0 0.0
0.0915024 -0.000243238 0.0
0.0485587 -7.44863e-05 0.0
0.161474 -0.000655915 0.0
0.129111 -0.000456272 0.0
0.126165 -0.000391652 0.0
0 0 0.0
0.046602 -6.43369e-05 0.0
0.0887067 -0.000214547 0.0
0.211055 -0.00100207 0.0
0.188827 -0.000864758 0.0
0.240541 -0.00122053 0.0
0.228344 -0.0011706 0.0
0.247776 -0.00130461 0.0
0.249993 -0.00129217 0.0
0.247237 -0.00121463 0.0
0.158576 -0.000628689 0.0
0.208966 -0.00097564 0.0
0.239449 -0.00121347 0.0
0.226728 -0.0010776 0.0
0.186265 -0.000807232 0.0
0 0 0.0
0.0486921 -8.13029e-05 0.0
0.0917066 -0.000267484 0.0
0.161685 -0.000722781 0.0
0.129338 -0.000503398 0.0
0.088524 -0.000234987 0.0
0.125939 -0.000436855 0.0
0 0 0.0
0.0464738 -7.10348e-05 0.0
0.211207 -0.00110635 0.0
0.189019 -0.000955424 0.0
0.240618 -0.00134783 0.0
0.228464 -0.00129372 0.0
0.247807 -0.00141086 0.0
0.249992 -0.00142805 0.0
0.247177 -0.00139883 0.0
0.158374 -0.000691487 0.0
0.239369 -0.00133982 0.0
0.208839 -0.00105705 0.0
0.226573 -0.00123102 0.0
0.186037 -0.000913612 0.0
0 0 0.0
0.0919575 -0.000297743 0.0
0.0488463 -8.94585e-05 0.0
0.161965 -0.00081239 0.0
0.129587 -0.000555233 0.0
0.0883449 -0.000255853 0.0
0.125721 -0.000481457 0.0
0 0 0.0
0.0463381 -7.81518e-05 0.0
0.189228 -0.00105631 0.0
0.211375 -0.00122233 0.0
0.240705 -0.00149015 0.0
0.247849 -0.00155524 0.0
0.228596 -0.00142865 0.0
0.249989 -0.00157372 0.0
0.247132 -0.00154657 0.0
0.23928 -0.00147554 0.0
0.249559 -0.00168773 0.0
0.158148 -0.000760438 0.0
0.226441 -0.00135791 0.0
0.208623 -0.00119854 0.0
0.185886 -0.000981985 0.0
0 0 0.0
0.0921872 -0.000325488 0.0
0.0490273 -9.96255e-05 0.0
0.162176 -0.000880216 0.0
0.129862 -0.000612478 0.0
0.0881274 -0.000281062 0.0
0.125518 -0.000522285 0.0
0 0 0.0
0.046198 -8.55938e-05 0.0
0.189461 -0.00116675 0.0
0.211562 -0.00135065 0.0
0.240795 -0.00164361 0.0
0.228743 -0.00158003 0.0
0.247915 -0.00179628 0.0
0.249162 -0.00168666 0.0
0.243769 -0.00163628 0.0
0.233386 -0.00153653 0.0
0.249982 -0.0018258 0.0
0.157902 -0.000836159 0.0
0.218018 -0.00139147 0.0
0.203212 -0.00125867 0.0
0.185611 -0.00110522 0.0
0 0 0.0
0.0924627 -0.000358875 0.0
0.049215 -0.000109155 0.0
0.16246 -0.000972771 0.0
0.130168 -0.000676756 0.0
0.125218 -0.000582702 0.0
0.0878874 -0.000309353 0.0
0 0 0.0
0.0460285 -9.3911e-05 0.0
0.189719 -0.00129021 0.0
0.211768 -0.00149301 0.0
0.247962 -0.00198077 0.0
0.228903 -0.00174601 0.0
0.240901 -0.00181652 0.0
0.247047 -0.00180168 0.0
0.239115 -0.00172367 0.0
0.226194 -0.00159335 0.0
0.249973 -0.00201368 0.0
0.157629 -0.000920664 0.0
0.208294 -0.00141168 0.0
0.185362 -0.00121663 0.0
0 0 0.0
0.0494128 -0.000119577 0.0
0.092768 -0.000396956 0.0
0.130453 -0.000736551 0.0
0.190002 -0.00142546 0.0
0.162777 -0.00107583 0.0
0.124927 -0.00064091 0.0
0.0876231 -0.000340751 0.0
0.0458481 -0.000103455 0.0
0 0 0.0
0.229049 -0.00189784 0.0
0.211996 -0.0016533 0.0
0.248006 -0.00214075 0.0
0.241012 -0.00200991 0.0
0.226022 -0.0017528 0.0
0.246981 -0.00198509 0.0
0.238993 -0.00189807 0.0
0.249966 -0.00222085 0.0
0.185092 -0.00133636 0.0
0.157268 -0.00102944 0.0
0.208001 -0.00159706 0.0
0 0 0.0
0.0496421 -0.000132725 0.0
0.0931432 -0.000443543 0.0
0.130821 -0.000814065 0.0
0.190235 -0.00154241 0.0
0.163201 -0.00122072 0.0
0.12461 -0.000703802 0.0
0.0873044 -0.000378542 0.0
0.0456517 -0.000113533 0.0
0 0 0.0
0.124259 -0.000774743 0.0
0.229205 -0.0020575 0.0
0.212326 -0.00189241 0.0
0.241186 -0.00231643 0.0
0.24805 -0.00231016 0.0
0.225761 -0.00199157 0.0
0.238862 -0.00208756 0.0
0.24691 -0.00218883 0.0
0.24995 -0.00244948 0.0
0.184794 -0.0014674 0.0
0.156932 -0.00113429 0.0
0.20775 -0.00175838 0.0
0 0 0.0
0.0498955 -0.000146711 0.0
0.0935242 -0.000492267 0.0
0.13123 -0.000903806 0.0
0.190577 -0.00170823 0.0
0.163602 -0.00135711 0.0
0.0454312 -0.000126322 0.0
0.0869795 -0.000417824 0.0
0 0 0.0
0.123937 -0.000837186 0.0
0.229412 -0.00228272 0.0
0.212613 -0.00210086 0.0
0.241324 -0.00256276 0.0
0.248106 -0.00255517 0.0
0.225579 -0.0021548 0.0
0.238717 -0.00229548 0.0
0.249934 -0.00270331 0.0
0.246788 -0.00251893 0.0
0.18455 -0.00157053 0.0
0.156565 -0.00124516 0.0
0.207473 -0.00192879 0.0
0 0 0.0
0.0501743 -0.000162289 0.0
0.0939451 -0.000546236 0.0
0.131755 -0.00102007 0.0
0.191051 -0.00194799 0.0
0.212927 -0.0023371 0.0
0.164042 -0.0015131 0.0
0.0452052 -0.000138384 0.0
0.0866268 -0.000459218 0.0
0 0 0.0
0.123524 -0.000917829 0.0
0.229718 -0.00262033 0.0
0.24144 -0.00278523 0.0
0.248167 -0.00282586 0.0
0.249914 -0.00291342 0.0
0.225386 -0.00232522 0.0
0.238545 -0.00252759 0.0
0.246688 -0.00277403 0.0
0.156163 -0.00136561 0.0
0.184199 -0.00172128 0.0
0.207166 -0.00211375 0.0
0 0 0.0
0.0505063 -0.00018244 0.0
0.0944196 -0.000612076 0.0
0.132274 -0.00114273 0.0
0.191372 -0.00211682 0.0
0.213269 -0.00259812 0.0
0.164534 -0.00169064 0.0
0.0449424 -0.000151763 0.0
0.086239 -0.000503982 0.0
0 0 0.0
0.155816 -0.0014606 0.0
0.0858173 -0.000549371 0.0
0.123003 -0.00101551 0.0
0.229973 -0.00292508 0.0
0.241561 -0.00301662 0.0
0.248253 -0.00327063 0.0
0.249894 -0.00313382 0.0
0.246601 -0.00299114 0.0
0.225126 -0.00254802 0.0
0.238282 -0.00288467 0.0
0.18371 -0.00192188 0.0
0.206881 -0.00228771 0.0
0.2302 -0.003188 0.0
0 0 0.0
0.0508593 -0.000204735 0.0
0.132853 -0.00128553 0.0
0.0949504 -0.00069001 0.0
0.21365 -0.00290387 0.0
0.191952 -0.0024318 0.0
0.16508 -0.00189513 0.0
0.0446419 -0.000166391 0.0
0 0 0.0
0.183386 -0.00205495 0.0
0.155344 -0.00159288 0.0
0.122502 -0.0011081 0.0
0.0443226 -0.000183487 0.0
0.0853543 -0.000599842 0.0
0.241727 -0.00334919 0.0
0.248297 -0.00354156 0.0
0.249849 -0.00345893 0.0
0.249812 -0.00372905 0.0
0.246498 -0.00322082 0.0
0.22483 -0.00279341 0.0
0.238051 -0.0031685 0.0
0.206568 -0.002461 0.0
0.230431 -0.00348187 0.0
0.0512401 -0.000231215 0.0
0 0 0.0
0.133399 -0.00142268 0.0
0.0955453 -0.000779173 0.0
0.214062 -0.00324744 0.0
0.192342 -0.00265335 0.0
0.16569 -0.00213421 0.0
0 0 0.0
0.182922 -0.00223051 0.0
0.154721 -0.00175429 0.0
0.122048 -0.00118087 0.0
0.0439982 -0.000198507 0.0
0.0848554 -0.000650135 0.0
0.241961 -0.00388403 0.0
0.248342 -0.00382673 0.0
0.249758 -0.00401266 0.0
0.246279 -0.00368991 0.0
0.224506 -0.00305236 0.0
0.237801 -0.00347426 0.0
0.206037 -0.00275537 0.0
0.230745 -0.00388909 0.0
0 0 0.0
0.0516892 -0.000264688 0.0
0.134112 -0.00161365 0.0
0.096155 -0.000877022 0.0
0.166367 -0.00240745 0.0
0.214512 -0.00364423 0.0
0.193052 -0.00306861 0.0
0 0 0.0
0 0 0.0
0.182406 -0.00241955 0.0
0.154149 -0.00189789 0.0
0.12147 -0.0012745 0.0
0.0843181 -0.000700644 0.0
0.0436288 -0.000213636 0.0
0.242138 -0.00432068 0.0
0.248383 -0.00424185 0.0
0.237569 -0.00373665 0.0
0.249674 -0.00442582 0.0
0.246085 -0.00406211 0.0
0.224137 -0.00333553 0.0
0.205571 -0.00299368 0.0
0.242277 -0.00471351 0.0
0.231062 -0.00434888 0.0
0.0521977 -0.000301179 0.0
0.0969096 -0.000997724 0.0
0.134919 -0.00184271 0.0
0.166967 -0.00266817 0.0
0.215002 -0.00409211 0.0
0.193522 -0.00337223 0.0
0 0 0.0
0 0 0.0
0.153657 -0.00200388 0.0
0.181693 -0.00265622 0.0
0.0838005 -0.00074214 0.0
0.12075 -0.00137839 0.0
0.043229 -0.000230691 0.0
0.248432 -0.0049078 0.0
0.249552 -0.00488707 0.0
0.205059 -0.0032436 0.0
0.23731 -0.00400915 0.0
0.245917 -0.00437397 0.0
0.223566 -0.0037405 0.0
0.24242 -0.0051253 0.0
0.231538 -0.00506601 0.0
0.215525 -0.00460902 0.0
0.0528206 -0.000349029 0.0
0.0977756 -0.00115216 0.0
0.135974 -0.00215594 0.0
0.167793 -0.00302986 0.0
0.19438 -0.00394036 0.0
0 0 0.0
0 0 0.0
0.152855 -0.00216884 0.0
0.181053 -0.00285922 0.0
0.083131 -0.00079299 0.0
0.120074 -0.00146495 0.0
0.0427873 -0.000245515 0.0
0.245719 -0.00470581 0.0
0.249401 -0.0053829 0.0
0.248425 -0.00544955 0.0
0.204486 -0.00350338 0.0
0.236948 -0.00438242 0.0
0.223074 -0.00407528 0.0
0.180351 -0.00306113 0.0
0.242642 -0.00595828 0.0
0 0 0.0
0.231881 -0.00569636 0.0
0.195142 -0.0044848 0.0
0.216079 -0.00519319 0.0
0.0534822 -0.000406326 0.0
0.136867 -0.00244111 0.0
0.0988843 -0.00136572 0.0
0.168901 -0.00357355 0.0
0 0 0.0
0 0 0.0
0 0 0.0
0 0 0.0
0 0 0.0
0.0423632 -0.000257028 0.0
0.119349 -0.0015503 0.0
0.152119 -0.00230856 0.0
0.0825462 -0.000833651 0.0
0.24542 -0.00515374 0.0
0.249198 -0.00593267 0.0
0.248401 -0.00604566 0.0
0.222618 -0.00434634 0.0
0.20384 -0.0037734 0.0
0.236333 -0.00494345 0.0
0.203239 -0.00400726 0.0
0.179774 -0.00320833 0.0
0.242769 -0.00665339 0.0
0.23224 -0.00638754 0.0
0 0 0.0
9.15184e-05 -4.07253e-05 0.0
0 0 0.0
-0.000258418 0.00123769 0.0
0.216675 -0.00587244 0.0
0.195764 -0.00494293 0.0
0.0543275 -0.000484494 0.0
0.138037 -0.00282647 0.0
0.100056 -0.00160385 0.0
0.169956 -0.00411747 0.0
0 0 0.0
0 0 0.0
0 0 0.0
-0.00018139 0.000575384 0.0
6.34094e-06 -0.000155961 0.0
8.95007e-05 -0.000106398 0.0
0 0 0.0
0.0418896 -0.000270899 0.0
0.118702 -0.00161477 0.0
0.151324 -0.00244113 0.0
0.0818009 -0.000878342 0.0
0.245068 -0.00565092 0.0
0.248938 -0.00653167 0.0
0.248329 -0.00669791 0.0
0.222113 -0.00463824 0.0
0.235925 -0.00530158 0.0
0.202573 -0.00424015 0.0
0.178729 -0.00345447 0.0
0.242879 -0.00741625 0.0
0.235612 -0.00719967 0.0
0.225503 -0.00682509 0.0
0 0 0.0
0.000172267 -2.28128e-05 0.0
0 0 0.0
0 0 0.0
-0.00094352 0.00303473 0.0
-0.000855225 0.00184602 0.0
0.212525 -0.00633023 0.0
0.196637 -0.00564536 0.0
0.101278 -0.00186614 0.0
0.0552402 -0.000582998 0.0
0.139364 -0.00330063 0.0
0.171108 -0.00475753 0.0
0 0 0.0
-0.000244011 0.000162539 0.0
-0.000538508 0.00081843 0.0
-9.48758e-05 -1.60107e-05 0.0
-1.09423e-06 5.41274e-05 0.0
0 0 0.0
0.0413963 -0.000283377 0.0
0.117898 -0.00168688 0.0
0.150472 -0.00256138 0.0
0.0810851 -0.000915759 0.0
0.244641 -0.00618192 0.0
0.248614 -0.00718065 0.0
0.248204 -0.00741498 0.0
0.221167 -0.00514372 0.0
0.235459 -0.00566307 0.0
0.201704 -0.00452984 0.0
0.149553 -0.0026899 0.0
0.177792 -0.00365824 0.0
0.242933 -0.00807848 0.0
0.232807 -0.00774548 0.0
0.21773 -0.00727162 0.0
0 0 0.0
8.14845e-05 6.07325e-05 0.0
0 0 0.0
0 0 0.0
0 0 0.0
0 0 0.0
-0.00149209 0.00199605 0.0
-0.000284433 0.00274221 0.0
-0.0010016 0.00409912 0.0
-0.00229008 0.0054671 0.0
-0.00184585 0.00355893 0.0
0 0 0.0
-9.27056e-05 0.00462402 0.0
0.197802 -0.00670647 0.0
0.172113 -0.0053763 0.0
0 0 0.0
0.0564449 -0.000724818 0.0
0.102844 -0.00223816 0.0
0.141114 -0.00401948 0.0
0 0 0.0
0 0 0.0
-0.000810033 0.000835785 0.0
-0.000524405 0.000438608 0.0