# vtk DataFile Version 3.0
Mesh NS-CD Problem
ASCII
DATASET UNSTRUCTURED_GRID
POINTS 10839 float
-2 0.3 0.0
-2 0.4 0.0
-2 0.35 0.0
-2 0.45 0.0
-2 0.5 0.0
-2 0.55 0.0
-2 0 0.0
-2 0.05 0.0
-2 0.85 0.0
-2 0.9 0.0
-2 0.1 0.0
-2 0.15 0.0
-2 0.25 0.0
-2 0.2 0.0
-1.96653 0.266667 0.0
-1.96524 0.415385 0.0
-1.96485 0.315 0.0
-1.96348 0.363636 0.0
-1.96414 0.464286 0.0
-2 0.6 0.0
-1.96538 0.584615 0.0
-1.96538 0.538462 0.0
-1.94979 0 0.0
-1.96653 0.0666666 0.0
-1.93306 0.0333333 0.0
-2 0.8 0.0
-2 0.75 0.0
-2 0.7 0.0
-2 0.65 0.0
-1.96249 0.7375 0.0
-1.96666 0.833333 0.0
-2 1 0.0
-2 0.95 0.0
-1.96249 0.8875 0.0
-1.96666 0.933333 0.0
-1.96234 0.1125 0.0
-1.96653 0.166667 0.0
-1.93724 0.225 0.0
-1.92971 0.28 0.0
-1.93048 0.380769 0.0
-1.93048 0.423077 0.0
-1.89958 0.3375 0.0
-1.9292 0.484203 0.0
-1.92117 0.530907 0.0
-1.96363 0.636364 0.0
-1.93076 0.576923 0.0
-1.89958 0 0.0
-1.88703 0.0375 0.0
-1.90963 0.08 0.0
-1.86611 0.0666666 0.0
-1.93749 0.775 0.0
-1.93635 0.672727 0.0
-1.92999 0.72 0.0
-1.93332 0.866667 0.0
-1.92856 0.821429 0.0
-1.94999 1 0.0
-1.92499 0.9625 0.0
-1.92499 0.925 0.0
-1.89998 0.9 0.0
-1.89958 0.125 0.0
-1.92827 0.178571 0.0
-1.89958 0.233333 0.0
-1.89045 0.290909 0.0
-1.86096 0.311538 0.0
-1.89241 0.392857 0.0
-1.89334 0.448489 0.0
-1.85655 0.357143 0.0
-1.89614 0.653846 0.0
-1.89427 0.504121 0.0
-1.8952 0.559753 0.0
-1.89614 0.615385 0.0
-1.84937 0 0.0
-1.83264 0.0333333 0.0
-1.85655 0.107143 0.0
-1.81172 0.075 0.0
-1.89998 0.766667 0.0
-1.89089 0.709091 0.0
-1.87498 0.85 0.0
-1.85998 0.79 0.0
-1.88748 0.8125 0.0
-1.89998 1 0.0
-1.88748 0.9625 0.0
-1.86664 0.933333 0.0
-1.85712 0.892857 0.0
-1.87448 0.15 0.0
-1.86611 0.194444 0.0
-1.83264 0.133333 0.0
-1.83264 0.2625 0.0
-1.82068 0.321429 0.0
-1.85664 0.404762 0.0
-1.85674 0.452381 0.0
-1.85683 0.5 0.0
-1.81184 0.375 0.0
-1.85712 0.642857 0.0
-1.85693 0.547619 0.0
-1.85702 0.595238 0.0
-1.79917 0 0.0
-1.78482 0.0357143 0.0
-1.79917 0.116667 0.0
-1.76569 0.0666666 0.0
-1.85452 0.745455 0.0
-1.82689 0.692308 0.0
-1.81815 0.781818 0.0
-1.82497 0.825 0.0
-1.84997 1 0.0
-1.8333 0.958333 0.0
-1.81247 0.8875 0.0
-1.81247 0.925 0.0
-1.81742 0.218182 0.0
-1.82427 0.175 0.0
-1.77634 0.145455 0.0
-1.79144 0.242308 0.0
-1.78482 0.285714 0.0
-1.77469 0.332653 0.0
-1.81215 0.529762 0.0
-1.81194 0.422619 0.0
-1.81203 0.470238 0.0
-1.76714 0.392857 0.0
-1.81234 0.625 0.0
-1.79732 0.571429 0.0
-1.74896 0 0.0
-1.73222 0.0333333 0.0
-1.75398 0.105 0.0
-1.71883 0.07 0.0
-1.79227 0.730769 0.0
-1.78007 0.679121 0.0
-1.75765 0.769231 0.0
-1.78178 0.818182 0.0
-1.78996 0.86 0.0
-1.79996 1 0.0
-1.78568 0.964286 0.0
-1.76663 0.922222 0.0
-1.76569 0.1875 0.0
-1.73222 0.15 0.0
-1.74896 0.25 0.0
-1.73714 0.304762 0.0
-1.76743 0.537202 0.0
-1.72869 0.343878 0.0
-1.76732 0.485119 0.0
-1.76723 0.440476 0.0
-1.72243 0.410714 0.0
-1.76757 0.607143 0.0
-1.69875 0 0.0
-1.68369 0.035 0.0
-1.69875 0.1125 0.0
-1.66528 0.075 0.0
-1.74341 0.708974 0.0
-1.73324 0.665934 0.0
-1.70441 0.74478 0.0
-1.71423 0.785714 0.0
-1.72303 0.826923 0.0
-1.74541 0.854545 0.0
-1.74541 0.890909 0.0
-1.74996 1 0.0
-1.73745 0.9625 0.0
-1.71359 0.927273 0.0
-1.68716 0.153846 0.0
-1.7131 0.214286 0.0
-1.70725 0.275 0.0
-1.69712 0.321939 0.0
-1.72279 0.589286 0.0
-1.72261 0.5 0.0
-1.7227 0.544643 0.0
-1.6827 0.355102 0.0
-1.67773 0.428571 0.0
-1.70763 0.464286 0.0
-1.70369 0.62449 0.0
-1.64854 0 0.0
-1.63181 0.0375 0.0
-1.64137 0.142857 0.0
-1.61764 0.0769231 0.0
-1.69458 0.703846 0.0
-1.67471 0.657437 0.0
-1.66143 0.727637 0.0
-1.67125 0.768571 0.0
-1.67851 0.821429 0.0
-1.68841 0.861538 0.0
-1.70904 0.890909 0.0
-1.69995 1 0.0
-1.68176 0.963636 0.0
-1.67267 0.927273 0.0
-1.65427 0.187143 0.0
-1.66718 0.231429 0.0
-1.66554 0.3 0.0
-1.67802 0.571429 0.0
-1.67792 0.523809 0.0
-1.6367 0.366327 0.0
-1.63682 0.423469 0.0
-1.62568 0.502976 0.0
-1.6629 0.470238 0.0
-1.65254 0.618367 0.0
-1.6059 0.307143 0.0
-1.59833 0 0.0
-1.58288 0.0384615 0.0
-1.60563 0.169643 0.0
-1.58179 0.112271 0.0
-1.56964 0.0714286 0.0
-1.64574 0.690385 0.0
-1.62827 0.751429 0.0
-1.63371 0.791071 0.0
-1.64279 0.857143 0.0
-1.65378 0.896154 0.0
-1.64994 1 0.0
-1.6363 0.963636 0.0
-1.61916 0.930769 0.0
-1.61345 0.209107 0.0
-1.62126 0.248571 0.0
-1.56989 0.196429 0.0
-1.63324 0.553571 0.0
-1.58846 0.535714 0.0
-1.59408 0.361905 0.0
-1.59161 0.402211 0.0
-1.58832 0.464286 0.0
-1.61504 0.598581 0.0
-1.59683 0.64359 0.0
-1.57899 0.274107 0.0
-1.56176 0.322381 0.0
-1.54812 0 0.0
-1.53378 0.0357143 0.0
-1.54593 0.147619 0.0
-1.53385 0.0732143 0.0
-1.53393 0.110714 0.0
-1.58522 0.704286 0.0
-1.58709 0.745 0.0
-1.58896 0.785714 0.0
-1.60695 0.830357 0.0
-1.60707 0.892857 0.0
-1.59993 1 0.0
-1.58454 0.965385 0.0
-1.57135 0.928571 0.0
-1.55209 0.241071 0.0
-1.5291 0.198214 0.0
-1.56936 0.570918 0.0
-1.54369 0.517857 0.0
-1.5464 0.380952 0.0
-1.54564 0.427721 0.0
-1.54488 0.47449 0.0
-1.55026 0.606122 0.0
-1.54222 0.677143 0.0
-1.52943 0.282857 0.0
-1.52143 0.33619 0.0
-1.49792 0 0.0
-1.49802 0.05 0.0
-1.49822 0.15 0.0
-1.49312 0.1 0.0
-1.5423 0.717143 0.0
-1.54419 0.767857 0.0
-1.54727 0.819048 0.0
-1.57122 0.861905 0.0
-1.53553 0.914286 0.0
-1.54992 1 0.0
-1.53563 0.964286 0.0
-1.49842 0.25 0.0
-1.48831 0.2 0.0
-1.5214 0.558929 0.0
-1.49891 0.5 0.0
-1.49871 0.4 0.0
-1.47631 0.45 0.0
-1.49911 0.6 0.0
-1.49921 0.65 0.0
-1.49931 0.7 0.0
-1.48111 0.35 0.0
-1.48351 0.3 0.0
-1.44771 0 0.0
-1.44782 0.05 0.0
-1.44804 0.15 0.0
-1.44793 0.1 0.0
-1.49941 0.75 0.0
-1.49951 0.8 0.0
-1.49981 0.95 0.0
-1.49961 0.85 0.0
-1.49971 0.9 0.0
-1.49991 1 0.0
-1.44826 0.25 0.0
-1.43815 0.2 0.0
-1.47151 0.55 0.0
-1.44881 0.5 0.0
-1.44859 0.4 0.0
-1.42619 0.45 0.0
-1.44913 0.65 0.0
-1.44902 0.6 0.0
-1.44935 0.75 0.0
-1.44924 0.7 0.0
-1.43972 0.35 0.0
-1.43336 0.3 0.0
-1.3975 0 0.0
-1.39762 0.05 0.0
-1.39786 0.15 0.0
-1.39274 0.1 0.0
-1.44957 0.85 0.0
-1.44946 0.8 0.0
-1.4523 0.95 0.0
-1.44968 0.9 0.0
-1.4499 1 0.0
-1.3981 0.25 0.0
-1.38798 0.2 0.0
-1.42141 0.55 0.0
-1.3987 0.5 0.0
-1.39834 0.35 0.0
-1.37845 0.4 0.0
-1.37607 0.45 0.0
-1.40784 0.65 0.0
-1.39894 0.6 0.0
-1.41185 0.75 0.0
-1.39918 0.7 0.0
-1.38322 0.3 0.0
-1.34729 0 0.0
-1.34492 0.05 0.0
-1.34018 0.15 0.0
-1.34255 0.1 0.0
-1.40707 0.85 0.0
-1.39941 0.8 0.0
-1.39977 0.95 0.0
-1.39965 0.9 0.0
-1.39989 1 0.0
-1.33781 0.2 0.0
-1.33544 0.25 0.0
-1.37131 0.55 0.0
-1.34859 0.5 0.0
-1.33833 0.4 0.0
-1.3307 0.35 0.0
-1.32595 0.45 0.0
-1.34885 0.6 0.0
-1.36655 0.65 0.0
-1.36179 0.75 0.0
-1.34911 0.7 0.0
-1.33307 0.3 0.0
-1.29708 0 0.0
-1.29722 0.05 0.0
-1.2975 0.15 0.0
-1.29236 0.1 0.0
-1.35703 0.85 0.0
-1.34937 0.8 0.0
-1.34988 1 0.0
-1.34962 0.9 0.0
-1.35226 0.95 0.0
-1.28528 0.25 0.0
-1.28764 0.2 0.0
-1.28931 0.35 0.0
-1.32121 0.55 0.0
-1.29848 0.5 0.0
-1.28709 0.45 0.0
-1.2982 0.4 0.0
-1.29876 0.6 0.0
-1.31647 0.65 0.0
-1.29918 0.75 0.0
-1.29904 0.7 0.0
-1.28292 0.3 0.0
-1.24687 0 0.0
-1.24702 0.05 0.0
-1.24717 0.1 0.0
-1.24732 0.15 0.0
-1.29946 0.85 0.0
-1.29932 0.8 0.0
-1.29987 1 0.0
-1.29974 0.95 0.0
-1.30462 0.9 0.0
-1.24762 0.25 0.0
-1.23747 0.2 0.0
-1.24792 0.35 0.0
-1.22807 0.4 0.0
-1.27111 0.55 0.0
-1.24837 0.5 0.0
-1.24822 0.45 0.0
-1.24867 0.6 0.0
-1.26639 0.65 0.0
-1.26167 0.75 0.0
-1.24897 0.7 0.0
-1.23277 0.3 0.0
-1.19667 0 0.0
-1.19683 0.05 0.0
-1.18964 0.15 0.0
-1.19198 0.1 0.0
-1.25695 0.85 0.0
-1.24927 0.8 0.0
-1.25223 0.95 0.0
-1.24987 1 0.0
-1.24957 0.9 0.0
-1.1873 0.2 0.0
-1.18496 0.25 0.0
-1.18028 0.35 0.0
-1.17794 0.4 0.0
-1.1981 0.45 0.0
-1.19842 0.55 0.0
-1.19826 0.5 0.0
-1.19858 0.6 0.0
-1.19874 0.65 0.0
-1.19906 0.75 0.0
-1.1989 0.7 0.0
-1.18262 0.3 0.0
-1.14646 0 0.0
-1.14663 0.05 0.0
-1.1418 0.1 0.0
-1.13713 0.2 0.0
-1.14697 0.15 0.0
-1.20691 0.85 0.0
-1.20926 0.8 0.0
-1.20221 0.95 0.0
-1.19986 1 0.0
-1.20456 0.9 0.0
-1.13997 0.3 0.0
-1.14731 0.25 0.0
-1.13781 0.4 0.0
-1.13014 0.35 0.0
-1.12548 0.45 0.0
-1.14815 0.5 0.0
-1.15962 0.55 0.0
-1.14849 0.6 0.0
-1.15745 0.65 0.0
-1.16155 0.75 0.0
-1.14917 0.8 0.0
-1.14883 0.7 0.0
-1.09625 0 0.0
-1.09661 0.1 0.0
-1.09393 0.05 0.0
-1.09697 0.2 0.0
-1.08929 0.15 0.0
-1.15687 0.85 0.0
-1.14985 1 0.0
-1.15219 0.95 0.0
-1.14951 0.9 0.0
-1.09733 0.3 0.0
-1.08465 0.25 0.0
-1.09769 0.4 0.0
-1.08 0.35 0.0
-1.08661 0.45 0.0
-1.09804 0.5 0.0
-1.12082 0.55 0.0
-1.10916 0.8 0.0
-1.10629 0.7 0.0
-1.0984 0.6 0.0
-1.11616 0.65 0.0
-1.11149 0.75 0.0
-1.04604 0 0.0
-1.04623 0.05 0.0
-1.04642 0.1 0.0
-1.0468 0.2 0.0
-1.03911 0.15 0.0
-1.09948 0.9 0.0
-1.0993 0.85 0.0
-1.09984 1 0.0
-1.09966 0.95 0.0
-1.04718 0.3 0.0
-1.03449 0.25 0.0
-1.04756 0.4 0.0
-1.02986 0.35 0.0
-1.04775 0.45 0.0
-1.04794 0.5 0.0
-1.04813 0.55 0.0
-1.05911 0.8 0.0
-1.04831 0.6 0.0
-1.06376 0.7 0.0
-1.0485 0.65 0.0
-1.04888 0.75 0.0
-0.995833 0 0.0
-0.991231 0.1 0.0
-0.996033 0.05 0.0
-0.986629 0.2 0.0
-0.98893 0.15 0.0
-1.05447 0.9 0.0
-1.04926 0.85 0.0
-1.04983 1 0.0
-1.04964 0.95 0.0
-0.984328 0.25 0.0
-0.99703 0.3 0.0
-0.997429 0.4 0.0
-0.997628 0.45 0.0
-0.979726 0.35 0.0
-0.997827 0.5 0.0
-0.998027 0.55 0.0
-0.998226 0.6 0.0
-0.961416 0.475 0.0
-1.00907 0.8 0.0
-0.998426 0.65 0.0
-0.998625 0.7 0.0
-1.01138 0.75 0.0
-0.945625 0 0.0
-0.946044 0.1 0.0
-0.943334 0.05 0.0
-0.946463 0.2 0.0
-0.938752 0.15 0.0
-1.00444 0.9 0.0
-1.00675 0.85 0.0
-0.999821 1 0.0
-1.00213 0.95 0.0
-0.93417 0.25 0.0
-0.946881 0.3 0.0
-0.9473 0.4 0.0
-0.929588 0.35 0.0
-0.925005 0.45 0.0
-0.960371 0.525 0.0
-0.959325 0.575 0.0
-0.958279 0.625 0.0
-0.922714 0.5 0.0
-0.959017 0.8 0.0
-0.957233 0.675 0.0
-0.952999 0.7125 0.0
-0.948766 0.75 0.0
-0.895417 0 0.0
-0.895855 0.1 0.0
-0.893136 0.05 0.0
-0.896294 0.2 0.0
-0.888573 0.15 0.0
-0.949184 0.85 0.0
-0.954415 0.9 0.0
-0.949812 1 0.0
-0.949603 0.95 0.0
-0.884011 0.25 0.0
-0.896733 0.3 0.0
-0.874887 0.45 0.0
-0.879449 0.35 0.0
-0.897171 0.4 0.0
-0.920423 0.55 0.0
-0.918132 0.6 0.0
-0.915841 0.65 0.0
-0.872606 0.5 0.0
-0.908968 0.8 0.0
-0.91355 0.7 0.0
-0.898707 0.75 0.0
-0.845208 0 0.0
-0.845438 0.05 0.0
-0.845667 0.1 0.0
-0.845896 0.15 0.0
-0.833853 0.25 0.0
-0.846126 0.2 0.0
-0.899146 0.85 0.0
-0.904386 0.9 0.0
-0.899584 0.95 0.0
-0.899804 1 0.0
-0.838062 0.35 0.0
[...]
POINT_DATA 10839
VECTORS Velocity float
0.21 0 0.0
0.24 0 0.0
0.2275 0 0.0
0.2475 0 0.0
0.25 0 0.0
0.2475 0 0.0
0 0 0.0
0.0475 0 0.0
0.1275 0 0.0
0.09 0 0.0
0.09 0 0.0
0.1275 0 0.0
0.1875 0 0.0
0.16 0 0.0
0.195557 -2.42595e-05 0.0
0.242841 -3.30143e-05 0.0
0.215776 -2.88426e-05 0.0
0.231406 -3.24897e-05 0.0
0.248725 -3.51395e-05 0.0
0.24 0 0.0
0.24284 -3.29386e-05 0.0
0.24852 -3.38419e-05 0.0
0 0 0.0
0.0622239 -4.27821e-06 0.0
0.0322271 -2.82918e-06 0.0
0.16 0 0.0
0.1875 0 0.0
0.21 0 0.0
0.2275 0 0.0
0.193592 -2.72267e-05 0.0
0.138887 -1.51774e-05 0.0
0 0 0.0
0.0475 0 0.0
0.0998415 -1.05768e-05 0.0
0.0622205 -4.32703e-06 0.0
0.0998462 -1.10479e-05 0.0
0.138891 -1.53093e-05 0.0
0.17438 -3.82331e-05 0.0
0.201606 -5.22831e-05 0.0
0.235787 -6.37391e-05 0.0
0.244085 -6.66707e-05 0.0
0.223602 -8.53903e-05 0.0
0.249751 -6.96376e-05 0.0
0.249044 -7.75735e-05 0.0
0.231404 -3.30111e-05 0.0
0.244081 -6.5881e-05 0.0
0 0 0.0
0.0361083 -5.45209e-06 0.0
0.0736128 -1.52042e-05 0.0
0.0622495 -1.66413e-05 0.0
0.17437 -3.76753e-05 0.0
0.220162 -5.22332e-05 0.0
0.201594 -5.23566e-05 0.0
0.115548 -2.2676e-05 0.0
0.146676 -3.50448e-05 0.0
0 0 0.0
0.0360873 -3.68345e-06 0.0
0.0693659 -1.191e-05 0.0
0.0899833 -2.35565e-05 0.0
0.109391 -3.18073e-05 0.0
0.146692 -3.43623e-05 0.0
0.178902 -6.39952e-05 0.0
0.206293 -8.3551e-05 0.0
0.214501 -0.000112436 0.0
0.238527 -9.97696e-05 0.0
0.24735 -0.00010386 0.0
0.229607 -0.000126872 0.0
0.226323 -8.96941e-05 0.0
0.249983 -0.000104365 0.0
0.246426 -0.000101548 0.0
0.23668 -9.56434e-05 0.0
0 0 0.0
0.032251 -6.15308e-06 0.0
0.0956969 -3.60813e-05 0.0
0.0694298 -2.71882e-05 0.0
0.178876 -6.30227e-05 0.0
0.206269 -8.41735e-05 0.0
0.127476 -4.8666e-05 0.0
0.165873 -7.96725e-05 0.0
0.152325 -5.71625e-05 0.0
0 0 0.0
0.0360793 -5.28255e-06 0.0
0.0621954 -1.64732e-05 0.0
0.0956297 -3.67816e-05 0.0
0.127525 -4.91271e-05 0.0
0.156661 -7.12422e-05 0.0
0.115601 -5.63385e-05 0.0
0.193626 -0.000117175 0.0
0.218141 -0.000148107 0.0
0.24094 -0.000135132 0.0
0.247737 -0.000140112 0.0
0.25 -0.000141628 0.0
0.234398 -0.000171328 0.0
0.229577 -0.000125105 0.0
0.247727 -0.000139795 0.0
0.240919 -0.00013488 0.0
0 0 0.0
0.0344878 -8.50568e-06 0.0
0.103121 -5.53132e-05 0.0
0.0623037 -2.75236e-05 0.0
0.189727 -9.96713e-05 0.0
0.212989 -0.000138961 0.0
0.170534 -0.000107866 0.0
0.144329 -8.01576e-05 0.0
0 0 0.0
0.0398976 -9.07086e-06 0.0
0.0997859 -5.0347e-05 0.0
0.0693207 -2.67622e-05 0.0
0.170624 -0.00010799 0.0
0.144421 -8.18936e-05 0.0
0.124377 -8.29601e-05 0.0
0.18365 -0.000136333 0.0
0.204131 -0.000163094 0.0
0.222038 -0.000191881 0.0
0.249109 -0.000185676 0.0
0.244026 -0.000180767 0.0
0.24912 -0.000185695 0.0
0.238551 -0.000217799 0.0
0.234353 -0.000170291 0.0
0.244883 -0.00019565 0.0
0 0 0.0
0.0322926 -8.99992e-06 0.0
0.0940745 -5.80959e-05 0.0
0.065218 -3.47673e-05 0.0
0.196696 -0.000148996 0.0
0.217871 -0.000182869 0.0
0.177438 -0.000151134 0.0
0.14869 -0.000105668 0.0
0.120329 -7.41002e-05 0.0
0 0 0.0
0.0343902 -8.60058e-06 0.0
0.0716437 -3.49373e-05 0.0
0.152424 -0.000118426 0.0
0.127615 -0.000102861 0.0
0.187578 -0.000168818 0.0
0.211951 -0.00021009 0.0
0.248605 -0.000230174 0.0
0.225685 -0.000237896 0.0
0.249783 -0.000231854 0.0
0.246474 -0.000227977 0.0
0.242064 -0.000266478 0.0
0.23849 -0.000217139 0.0
0 0 0.0
0.0338751 -1.12671e-05 0.0
0.0999932 -7.74469e-05 0.0
0.0695456 -4.62366e-05 0.0
0.206261 -0.000196681 0.0
0.222405 -0.000229112 0.0
0.189976 -0.000204199 0.0
0.168254 -0.00016509 0.0
0.143004 -0.000126803 0.0
0.124194 -9.37325e-05 0.0
0.0970837 -6.30689e-05 0.0
0 0 0.0
0.0360201 -1.09394e-05 0.0
0.0673143 -3.7415e-05 0.0
0.130334 -0.000124137 0.0
0.168482 -0.000165915 0.0
0.199472 -0.000216266 0.0
0.218378 -0.000253635 0.0
0.241992 -0.000267046 0.0
0.25 -0.000278757 0.0
0.247989 -0.000275497 0.0
0.229081 -0.000286021 0.0
0.244937 -0.000316916 0.0
0.248741 -0.000292419 0.0
0.234445 -0.000273476 0.0
0 0 0.0
0.0362335 -1.45121e-05 0.0
0.122658 -0.000127058 0.0
0.0712296 -5.46415e-05 0.0
0.20835 -0.000240168 0.0
0.225127 -0.000285557 0.0
0.198048 -0.000249148 0.0
0.177726 -0.000206504 0.0
0.146526 -0.000152503 0.0
0.119132 -0.000106743 0.0
0.0970509 -7.14806e-05 0.0
0 0 0.0
0.0349378 -1.22436e-05 0.0
0.067277 -4.20978e-05 0.0
0.152301 -0.000173238 0.0
0.178017 -0.000211479 0.0
0.210115 -0.000267342 0.0
0.244858 -0.000316707 0.0
0.24942 -0.000325374 0.0
0.232225 -0.000336039 0.0
0.244197 -0.000360207 0.0
0.249988 -0.000384194 0.0
0.249132 -0.000341803 0.0
0.235913 -0.000327014 0.0
0.212962 -0.000325985 0.0
0 0 0.0
0.0371624 -1.70859e-05 0.0
0.14111 -0.000176626 0.0
0.0999571 -0.000106995 0.0
0.0666 -5.32461e-05 0.0
0.213629 -0.000291744 0.0
0.186608 -0.000254018 0.0
0.165085 -0.000206893 0.0
0.122241 -0.000127835 0.0
0.0928658 -7.83378e-05 0.0
0 0 0.0
0.034908 -1.36655e-05 0.0
0.0642258 -4.46963e-05 0.0
0.165596 -0.000221189 0.0
0.186967 -0.000259875 0.0
0.158123 -0.000231263 0.0
0.247091 -0.00036967 0.0
0.248691 -0.000424399 0.0
0.231051 -0.000377017 0.0
0.240525 -0.000402228 0.0
0.248757 -0.000424184 0.0
0.240203 -0.00037581 0.0
0.229257 -0.000369024 0.0
0.199181 -0.000319043 0.0
0.218633 -0.000381024 0.0
0 0 0.0
0.0346502 -1.67659e-05 0.0
0.126168 -0.000171581 0.0
0.0681784 -6.01345e-05 0.0
0.0988188 -0.000116455 0.0
0.208084 -0.000333089 0.0
0.189761 -0.000290599 0.0
0.168127 -0.000241413 0.0
0.14062 -0.000175255 0.0
0.0954089 -9.30894e-05 0.0
0 0 0.0
0.0332518 -1.39822e-05 0.0
0.0660553 -5.31874e-05 0.0
0.183222 -0.000301371 0.0
0.159261 -0.000258633 0.0
0.244898 -0.000437266 0.0
0.24966 -0.000479773 0.0
0.23596 -0.000440668 0.0
0.244857 -0.0004656 0.0
0.249378 -0.00047884 0.0
0.238621 -0.000442467 0.0
0.218421 -0.000399881 0.0
0.203103 -0.00037184 0.0
0.223369 -0.0004353 0.0
0 0 0.0
0.0478068 -3.3401e-05 0.0
0.127919 -0.000195476 0.0
0.090423 -0.000109397 0.0
0.202609 -0.00035763 0.0
0.177968 -0.000294427 0.0
0.147889 -0.000221395 0.0
0.11872 -0.000145577 0.0
0.078027 -7.82519e-05 0.0
0 0 0.0
0.0342299 -1.64683e-05 0.0
0.18783 -0.000356495 0.0
0.160399 -0.000287618 0.0
0.246452 -0.000499026 0.0
0.249999 -0.000537625 0.0
0.240138 -0.000508225 0.0
0.247576 -0.00055974 0.0
0.23986 -0.000506894 0.0
0.227293 -0.000469285 0.0
0.209731 -0.000417668 0.0
0.227722 -0.000493695 0.0
0.210288 -0.000436235 0.0
0 0 0.0
0.0478701 -3.72667e-05 0.0
0.128013 -0.000218074 0.0
0.0905045 -0.000120237 0.0
0.187172 -0.000353863 0.0
0.15962 -0.000277843 0.0
0.0471968 -3.28214e-05 0.0
0.127086 -0.000192759 0.0
0.0895898 -0.000107259 0.0
0 0 0.0
0.187905 -0.000400424 0.0
0.160488 -0.000321776 0.0
0.24742 -0.000565413 0.0
0.249998 -0.000605134 0.0
0.24017 -0.000572649 0.0
0.247592 -0.000628896 0.0
0.227247 -0.000527586 0.0
0.239828 -0.000570004 0.0
0.187097 -0.000397001 0.0
0.209669 -0.000469239 0.0
0.227762 -0.000541756 0.0
0.210352 -0.000490256 0.0
0 0 0.0
0.0479398 -4.07786e-05 0.0
0.128118 -0.000242321 0.0
0.0906149 -0.000134687 0.0
0.126992 -0.000215961 0.0
0.159535 -0.000311477 0.0
0.0471374 -3.64277e-05 0.0
0.0895007 -0.000119238 0.0
0 0 0.0
0.187991 -0.000447172 0.0
0.160589 -0.000358649 0.0
0.247402 -0.000633876 0.0
0.249997 -0.000677429 0.0
0.227806 -0.000594278 0.0
0.24022 -0.000669603 0.0
0.24761 -0.000703729 0.0
0.227202 -0.000576867 0.0
0.239791 -0.000637696 0.0
0.187035 -0.000430148 0.0
0.209599 -0.000524261 0.0
0.210425 -0.000548212 0.0
0 0 0.0
0.0480215 -4.51966e-05 0.0
0.128254 -0.000272282 0.0
0.0907274 -0.000148442 0.0
0.126904 -0.000235919 0.0
0.159438 -0.000346679 0.0
0.0470653 -4.05577e-05 0.0
0.0894021 -0.000131806 0.0
0 0 0.0
0.160701 -0.00039789 0.0
0.188112 -0.000510123 0.0
0.247382 -0.000707281 0.0
0.249996 -0.000755176 0.0
0.240254 -0.000731623 0.0
0.227888 -0.000687987 0.0
0.24763 -0.000783331 0.0
0.23975 -0.000709692 0.0
0.227155 -0.000630674 0.0
0.186944 -0.000477988 0.0
0.209521 -0.000582594 0.0
0.210506 -0.000611415 0.0
0 0 0.0
0.0481035 -4.96579e-05 0.0
0.128368 -0.000296608 0.0
0.0908515 -0.000163199 0.0
0.126791 -0.000261377 0.0
0.15933 -0.000384874 0.0
0 0 0.0
0.0892919 -0.000146261 0.0
0.0469922 -4.47505e-05 0.0
0.188223 -0.00056836 0.0
0.160828 -0.000441232 0.0
0.227945 -0.000751285 0.0
0.247359 -0.000786927 0.0
0.249994 -0.000839654 0.0
0.247647 -0.000850874 0.0
0.24029 -0.000796847 0.0
0.239704 -0.000787599 0.0
0.22709 -0.000700187 0.0
0.186814 -0.000542422 0.0
0.209434 -0.000646268 0.0
0.210598 -0.000679544 0.0
0 0 0.0
0.0481959 -5.426e-05 0.0
0.0909745 -0.000176988 0.0
0.128513 -0.000326694 0.0
0.126645 -0.000293603 0.0
0.15921 -0.000426164 0.0
0 0 0.0
0.0469043 -4.96185e-05 0.0
0.0891838 -0.000159938 0.0
0.188316 -0.000614149 0.0
0.160969 -0.000488763 0.0
0.228006 -0.000819907 0.0
0.240358 -0.000923259 0.0
0.247332 -0.000873318 0.0
0.249991 -0.000930904 0.0
0.247665 -0.000922333 0.0
0.239651 -0.000871645 0.0
0.227017 -0.000775279 0.0
0.186728 -0.000585028 0.0
0.209337 -0.000713665 0.0
0.2107 -0.000755378 0.0
0 0 0.0
0.0482981 -5.89253e-05 0.0
0.128702 -0.000365941 0.0
0.0911404 -0.000196251 0.0
0.126525 -0.000320229 0.0
0.159078 -0.000471 0.0
0.0468157 -5.45067e-05 0.0
0 0 0.0
0.0890379 -0.000179053 0.0
0.161128 -0.000541254 0.0
0.188485 -0.000698472 0.0
0.22812 -0.000944586 0.0
0.240414 -0.00102699 0.0
0.247688 -0.00102387 0.0
0.247287 -0.00100897 0.0
0.249986 -0.00103245 0.0
0.239592 -0.000964582 0.0
0.226907 -0.000883822 0.0
0.186571 -0.000660237 0.0
0.20923 -0.000787521 0.0
0.210813 -0.000839155 0.0
0 0 0.0
0.048408 -6.36333e-05 0.0
0.0913071 -0.000213553 0.0
0.161305 -0.000597952 0.0
0.128859 -0.000396669 0.0
0.126372 -0.000354349 0.0
0.158962 -0.000509673 0.0
0.0467113 -6.12244e-05 0.0
0 0 0.0
0.0889038 -0.000197194 0.0
0.21092 -0.000918431 0.0
0.188603 -0.000757494 0.0
0.240462 -0.00111603 0.0
0.228214 -0.00105353 0.0
0.247726 -0.00118611 0.0
0.249979 -0.00114186 0.0
0.247257 -0.00108974 0.0
0.239525 -0.00106283 0.0
0.22683 -0.000956445 0.0
0.186465 -0.000709272 0.0
0.158774 -0.000572981 0.0
0.209112 -0.000865126 0.0
0 0 0.0
0.0914746 -0.000232289 0.0
0.0485366 -6.95846e-05 0.0
0.161463 -0.000651769 0.0
0.129094 -0.000446456 0.0
0.126204 -0.000392341 0.0
0 0 0.0
0.0465951 -6.8627e-05 0.0
0.0887248 -0.000221892 0.0
0.211038 -0.00100492 0.0
0.188816 -0.000868637 0.0
0.240512 -0.00121296 0.0
0.228318 -0.00117439 0.0
0.247744 -0.00128778 0.0
0.249967 -0.00126327 0.0
0.247225 -0.00117836 0.0
0.158636 -0.000615669 0.0
0.209002 -0.000934933 0.0
0.239448 -0.00116785 0.0
0.226745 -0.00103429 0.0
0.186316 -0.000778747 0.0
0 0 0.0
0.0486621 -7.5059e-05 0.0
0.0916765 -0.000255301 0.0
0.161683 -0.000725842 0.0
0.129329 -0.000496425 0.0
0.0885432 -0.000246147 0.0
0.125992 -0.00043961 0.0
0 0 0.0
0.0464594 -7.74845e-05 0.0
0.211189 -0.00112205 0.0
0.189014 -0.000972464 0.0
0.240579 -0.00134887 0.0
0.22843 -0.00131164 0.0
0.247763 -0.00139755 0.0
0.249953 -0.00139768 0.0
0.247151 -0.00135308 0.0
0.158454 -0.000673614 0.0
0.239362 -0.00128294 0.0
0.208883 -0.00100587 0.0
0.226592 -0.00117024 0.0
0.186109 -0.000872206 0.0
0 0 0.0
0.0919285 -0.000286922 0.0
0.0488059 -8.27566e-05 0.0
0.161982 -0.000832753 0.0
0.129591 -0.000556417 0.0
0.0883659 -0.000269825 0.0
0.12579 -0.000484609 0.0
0 0 0.0
0.046313 -8.71968e-05 0.0
0.189233 -0.00109475 0.0
0.211357 -0.0012583 0.0
0.240649 -0.00150515 0.0
0.247786 -0.00154864 0.0
0.228552 -0.00146759 0.0
0.24993 -0.00154237 0.0
0.247088 -0.0014922 0.0
0.239263 -0.00140394 0.0
0.249476 -0.00167234 0.0
0.158254 -0.000732697 0.0
0.226459 -0.00127781 0.0
0.20868 -0.00112285 0.0
0.185973 -0.00092802 0.0
0 0 0.0
0.0921646 -0.000320143 0.0
0.0489784 -9.28694e-05 0.0
0.162211 -0.000920588 0.0
0.129888 -0.000629997 0.0
0.0881521 -0.000296692 0.0
0.125605 -0.000522665 0.0
0 0 0.0
0.0461606 -9.67179e-05 0.0
0.189479 -0.00123777 0.0
0.211542 -0.00141692 0.0
0.240715 -0.00167738 0.0
0.228683 -0.00164999 0.0
0.247806 -0.00180642 0.0
0.249089 -0.00163917 0.0
0.243721 -0.00156021 0.0
0.233377 -0.00144071 0.0
0.249875 -0.00179388 0.0
0.158042 -0.00079022 0.0
0.218058 -0.00128866 0.0
0.203292 -0.0011598 0.0
0.18573 -0.00101941 0.0
0 0 0.0
0.0924581 -0.000366874 0.0
0.0491615 -0.000104548 0.0
0.162525 -0.00105097 0.0
0.130228 -0.000722808 0.0
0.125339 -0.0005714 0.0
0.0879206 -0.000322982 0.0
0 0 0.0
0.0459765 -0.00010603 0.0
0.189753 -0.00140923 0.0
0.211745 -0.00160256 0.0
0.247806 -0.00200707 0.0
0.22882 -0.00185808 0.0
0.240789 -0.0018783 0.0
0.246959 -0.001729 0.0
0.239065 -0.00161627 0.0
0.2262 -0.00146418 0.0
0.249815 -0.00198219 0.0
0.15781 -0.000844361 0.0
0.208368 -0.00127862 0.0
0.185511 -0.00109053 0.0
0 0 0.0
0.0493651 -0.000119905 0.0
0.0927969 -0.000427864 0.0
0.130555 -0.000819899 0.0
0.190056 -0.00161158 0.0
0.162881 -0.00121003 0.0
0.12509 -0.00060813 0.0
0.0876729 -0.000346557 0.0
0.0457832 -0.000115395 0.0
0 0 0.0
0.228938 -0.00205618 0.0
0.211965 -0.00182324 0.0
0.2478 -0.00218387 0.0
0.240852 -0.00210934 0.0
0.226012 -0.00157905 0.0
0.246847 -0.00189581 0.0
0.238909 -0.00175875 0.0
0.249738 -0.0021903 0.0
0.185276 -0.00115201 0.0
0.157514 -0.000894253 0.0
0.208085 -0.00139373 0.0
0 0 0.0
0.0496147 -0.000143757 0.0
0.0932396 -0.00051213 0.0
0.130993 -0.000960424 0.0
0.190303 -0.0017953 0.0
0.163366 -0.00145417 0.0
0.124831 -0.000634902 0.0
0.08739 -0.000364893 0.0
0.0455811 -0.000121998 0.0
0 0 0.0
0.12456 -0.000649322 0.0
0.229057 -0.00227067 0.0
0.212276 -0.0021727 0.0
0.240928 -0.00248947 0.0
0.247781 -0.00237357 0.0
0.225711 -0.00173531 0.0
0.238728 -0.0019065 0.0
0.24671 -0.00207856 0.0
0.249626 -0.00242185 0.0
0.185015 -0.00120339 0.0
0.157244 -0.000925702 0.0
0.207832 -0.00147818 0.0
0 0 0.0
0.0499116 -0.000170767 0.0
0.0937183 -0.000611702 0.0
0.131497 -0.00113553 0.0
0.190664 -0.00207143 0.0
0.163831 -0.00170359 0.0
0.0453655 -0.000128723 0.0
0.0871199 -0.00037629 0.0
0 0 0.0
0.124324 -0.000646431 0.0
0.229201 -0.00258307 0.0
0.212533 -0.00249299 0.0
0.240964 -0.00280407 0.0
0.247731 -0.00265312 0.0
0.225486 -0.00183427 0.0
0.23851 -0.00206217 0.0
0.249484 -0.00267864 0.0
0.246451 -0.00236992 0.0
0.184796 -0.00123046 0.0
0.156955 -0.000937485 0.0
0.207545 -0.00155031 0.0
0 0 0.0
0.0502672 -0.000206708 0.0
0.0942863 -0.000732533 0.0
0.132173 -0.0013816 0.0
0.191157 -0.00249209 0.0
0.212801 -0.00286914 0.0
0.164351 -0.00200377 0.0
0.0451622 -0.000129847 0.0
0.0868534 -0.000376971 0.0
0 0 0.0
0.124044 -0.000629063 0.0
0.229386 -0.00306934 0.0
0.240978 -0.00309296 0.0
0.247653 -0.00296635 0.0
0.249343 -0.00289337 0.0
0.225237 -0.00192553 0.0
0.238238 -0.0022318 0.0
0.246212 -0.00259113 0.0
0.156648 -0.000928707 0.0
0.184479 -0.00125514 0.0
0.207211 -0.00161385 0.0
0 0 0.0
0.050724 -0.000252171 0.0
0.0949657 -0.000883393 0.0
0.132869 -0.00164594 0.0
0.191482 -0.00279438 0.0
0.213075 -0.00329444 0.0
0.164939 -0.00235664 0.0
0.0449495 -0.000129273 0.0
0.0865959 -0.000365787 0.0
0 0 0.0
0.156387 -0.000900784 0.0
0.0863605 -0.000339567 0.0
0.123724 -0.000585733 0.0
0.229509 -0.00351559 0.0
0.240969 -0.00339975 0.0
0.247466 -0.0034893 0.0
0.24918 -0.00311875 0.0
0.245993 -0.00278097 0.0
0.224883 -0.00203681 0.0
0.237777 -0.00247889 0.0
0.184027 -0.00125738 0.0
0.206888 -0.00166432 0.0
0.229606 -0.00390968 0.0
0 0 0.0
0.0512475 -0.0003043 0.0
0.13368 -0.00195758 0.0
0.0957688 -0.0010625 0.0
0.213363 -0.00379717 0.0
0.192068 -0.00337129 0.0
0.1656 -0.00276748 0.0
0.0447415 -0.000120591 0.0
0 0 0.0
0.183714 -0.00124898 0.0
0.156041 -0.00085318 0.0
0.123456 -0.000533318 0.0
0.0445434 -0.000116482 0.0
0.086146 -0.000305619 0.0
0.240937 -0.00384127 0.0
0.247317 -0.00381154 0.0
0.2489 -0.00345397 0.0
0.248649 -0.00373545 0.0
0.245728 -0.00297809 0.0
0.224456 -0.00215356 0.0
0.237346 -0.00267113 0.0
0.206517 -0.00169641 0.0
0.229671 -0.00435017 0.0
0.0518448 -0.000363396 0.0
0 0 0.0
0.134465 -0.00225608 0.0
0.0967149 -0.00126447 0.0
0.213651 -0.00436334 0.0
0.192447 -0.00377281 0.0
0.166348 -0.00324243 0.0
0 0 0.0
0.183268 -0.00121498 0.0
0.1556 -0.000770461 0.0
0.123242 -0.000467134 0.0
0.0443883 -0.000105987 0.0
0.0859613 -0.000264239 0.0
0.24081 -0.00456128 0.0
0.247142 -0.00415331 0.0
0.248347 -0.00403002 0.0
0.245127 -0.00338208 0.0
0.223961 -0.00226437 0.0
0.236854 -0.00287259 0.0
0.205861 -0.0017442 0.0
0.229747 -0.00495605 0.0
0 0 0.0
0.0525925 -0.000435394 0.0
0.135522 -0.0026546 0.0
0.0977196 -0.00147536 0.0
0.167187 -0.003775 0.0
0.213943 -0.00500999 0.0
0.193143 -0.00452095 0.0
0 0 0.0
0 0 0.0
0.182752 -0.00117522 0.0
0.155211 -0.000689535 0.0
0.123007 -0.000387923 0.0
0.0858198 -0.000218324 0.0
0.0442484 -9.3239e-05 0.0
0.240655 -0.00514893 0.0
0.246839 -0.00465375 0.0
0.236382 -0.00304976 0.0
0.247878 -0.00446588 0.0
0.244584 -0.0037077 0.0
0.223369 -0.00238497 0.0
0.205252 -0.00177328 0.0
0.240488 -0.00567772 0.0
0.22977 -0.00563634 0.0
0.0534824 -0.000517059 0.0
0.0990076 -0.00173282 0.0
0.13674 -0.00310822 0.0
0.167943 -0.00426195 0.0
0.214243 -0.0057283 0.0
0.193587 -0.00504451 0.0
0 0 0.0
0 0 0.0
0.154885 -0.000614199 0.0
0.18204 -0.00110835 0.0
0.0857274 -0.000170778 0.0
0.122758 -0.000291709 0.0
0.0441211 -8.12581e-05 0.0
0.246278 -0.00545591 0.0
0.247295 -0.00495569 0.0
0.204569 -0.00180126 0.0
0.235847 -0.00323105 0.0
0.244107 -0.00398381 0.0
0.222423 -0.00255542 0.0
0.24028 -0.00622724 0.0
0.22977 -0.00667897 0.0
0.214535 -0.00653702 0.0
0.0545839 -0.000617114 0.0
0.1005 -0.00203355 0.0
0.138364 -0.0036931 0.0
0.168991 -0.00491713 0.0
0.19441 -0.00600013 0.0
0 0 0.0
0 0 0.0
0.154383 -0.000508052 0.0
0.181387 -0.00106644 0.0
0.0856697 -0.000117418 0.0
0.122573 -0.000213099 0.0
0.0440357 -6.68749e-05 0.0
0.243555 -0.00428233 0.0
0.24661 -0.0054845 0.0
0.245752 -0.00611237 0.0
0.203786 -0.00183625 0.0
0.235077 -0.00348775 0.0
0.221578 -0.00271274 0.0
0.180684 -0.00103382 0.0
0.239788 -0.00733143 0.0
0 0 0.0
0.229684 -0.00757157 0.0
0.195132 -0.00687551 0.0
0.214823 -0.00742598 0.0
0.0557603 -0.000719898 0.0
0.139759 -0.00419107 0.0
0.102418 -0.00241559 0.0
0.170412 -0.00583125 0.0
0 0 0.0
0 0 0.0
0 0 0.0
0 0 0.0
0 0 0.0
0.0439824 -5.54446e-05 0.0
0.12242 -0.000147031 0.0
0.153943 -0.00043784 0.0
0.0856344 -8.49224e-05 0.0
0.242733 -0.00468803 0.0
0.245792 -0.00607879 0.0
0.245142 -0.00682935 0.0
0.220795 -0.00283703 0.0
0.202895 -0.00188677 0.0
0.233782 -0.00389095 0.0
0.202064 -0.00194295 0.0
0.180103 -0.00101942 0.0
0.23931 -0.00823601 0.0
0.229561 -0.00853427 0.0
0 0 0.0
9.32792e-05 -3.49393e-05 0.0
0 0 0.0
-0.000406842 0.0025588 0.0
0.215117 -0.00842664 0.0
0.195726 -0.00758459 0.0
0.0572711 -0.000856465 0.0
0.141577 -0.00483095 0.0
0.104436 -0.00281489 0.0
0.171775 -0.0066957 0.0
0 0 0.0
0 0 0.0
0 0 0.0
-0.000311534 0.0014573 0.0
-4.55291e-05 -6.80087e-05 0.0
-1.31437e-05 -7.18425e-06 0.0
0 0 0.0
0.0439259 -5.05385e-05 0.0
0.122296 -0.000103846 0.0
0.153488 -0.000391245 0.0
0.0856332 -5.92966e-05 0.0
0.241781 -0.00514996 0.0
0.24484 -0.00673101 0.0
0.244403 -0.00761471 0.0
0.219924 -0.00299226 0.0
0.232914 -0.00416648 0.0
0.201154 -0.00201279 0.0
0.179081 -0.00103713 0.0
0.238751 -0.00921638 0.0
0.232175 -0.00946874 0.0
0.222961 -0.0094658 0.0
0 0 0.0
8.81569e-05 2.51917e-05 0.0
0 0 0.0
0 0 0.0
-0.00142276 0.00560399 0.0
-0.00141155 0.00378591 0.0
0.211089 -0.0092279 0.0
0.196559 -0.00863298 0.0
0.106516 -0.00323168 0.0
0.0588748 -0.00101424 0.0
0.143631 -0.00557045 0.0
0.173272 -0.00766608 0.0
0 0 0.0
-0.000548869 0.000801026 0.0
-0.000989894 0.00204676 0.0
-0.00038078 0.000354655 0.0
-0.000382901 0.000327397 0.0
0 0 0.0
0.0438825 -4.92887e-05 0.0
0.122169 -8.15495e-05 0.0
0.153023 -0.000367706 0.0
0.0856456 -5.41142e-05 0.0
0.240678 -0.00565607 0.0
0.243741 -0.00744121 0.0
0.24353 -0.00847438 0.0
0.218306 -0.00329004 0.0
0.231955 -0.00445005 0.0
0.199981 -0.00214156 0.0
0.152562 -0.000399661 0.0
0.178192 -0.00110134 0.0
0.238214 -0.0100603 0.0
0.229204 -0.0103719 0.0
0.215577 -0.0104008 0.0
0 0 0.0
-0.000280518 0.000175011 0.0
0 0 0.0
0 0 0.0
0 0 0.0
0 0 0.0
-0.00259439 0.00401478 0.0
-0.000380884 0.00472411 0.0
-0.00142408 0.00714559 0.0
-0.00334658 0.00931831 0.0
-0.00289327 0.00650216 0.0
0 0 0.0
-3.88406e-05 0.00664398 0.0
0.19767 -0.0101501 0.0
0.17459 -0.00856505 0.0
0 0 0.0
0.0609643 -0.00123474 0.0
0.109143 -0.00378998 0.0
0.146327 -0.00662474 0.0
0 0 0.0
0 0 0.0
-0.00162844 0.00202453 0.0
-0.00131096 0.00117621 0.0