# vtk DataFile Version 3.0
Mesh NS-CD Problem
ASCII
DATASET UNSTRUCTURED_GRID
POINTS 10839 float
-2 0.3 0.0
-2 0.4 0.0
-2 0.35 0.0
-2 0.45 0.0
-2 0.5 0.0
-2 0.55 0.0
-2 0 0.0
-2 0.05 0.0
-2 0.85 0.0
-2 0.9 0.0
-2 0.1 0.0
-2 0.15 0.0
-2 0.25 0.0
-2 0.2 0.0
-1.96653 0.266667 0.0
-1.96524 0.415385 0.0
-1.96485 0.315 0.0
-1.96348 0.363636 0.0
-1.96414 0.464286 0.0
-2 0.6 0.0
-1.96538 0.584615 0.0
-1.96538 0.538462 0.0
-1.94979 0 0.0
-1.96653 0.0666666 0.0
-1.93306 0.0333333 0.0
-2 0.8 0.0
-2 0.75 0.0
-2 0.7 0.0
-2 0.65 0.0
-1.96249 0.7375 0.0
-1.96666 0.833333 0.0
-2 1 0.0
-2 0.95 0.0
-1.96249 0.8875 0.0
-1.96666 0.933333 0.0
-1.96234 0.1125 0.0
-1.96653 0.166667 0.0
-1.93724 0.225 0.0
-1.92971 0.28 0.0
-1.93048 0.380769 0.0
-1.93048 0.423077 0.0
-1.89958 0.3375 0.0
-1.9292 0.484203 0.0
-1.92117 0.530907 0.0
-1.96363 0.636364 0.0
-1.93076 0.576923 0.0
-1.89958 0 0.0
-1.88703 0.0375 0.0
-1.90963 0.08 0.0
-1.86611 0.0666666 0.0
-1.93749 0.775 0.0
-1.93635 0.672727 0.0
-1.92999 0.72 0.0
-1.93332 0.866667 0.0
-1.92856 0.821429 0.0
-1.94999 1 0.0
-1.92499 0.9625 0.0
-1.92499 0.925 0.0
-1.89998 0.9 0.0
-1.89958 0.125 0.0
-1.92827 0.178571 0.0
-1.89958 0.233333 0.0
-1.89045 0.290909 0.0
-1.86096 0.311538 0.0
-1.89241 0.392857 0.0
-1.89334 0.448489 0.0
-1.85655 0.357143 0.0
-1.89614 0.653846 0.0
-1.89427 0.504121 0.0
-1.8952 0.559753 0.0
-1.89614 0.615385 0.0
-1.84937 0 0.0
-1.83264 0.0333333 0.0
-1.85655 0.107143 0.0
-1.81172 0.075 0.0
-1.89998 0.766667 0.0
-1.89089 0.709091 0.0
-1.87498 0.85 0.0
-1.85998 0.79 0.0
-1.88748 0.8125 0.0
-1.89998 1 0.0
-1.88748 0.9625 0.0
-1.86664 0.933333 0.0
-1.85712 0.892857 0.0
-1.87448 0.15 0.0
-1.86611 0.194444 0.0
-1.83264 0.133333 0.0
-1.83264 0.2625 0.0
-1.82068 0.321429 0.0
-1.85664 0.404762 0.0
-1.85674 0.452381 0.0
-1.85683 0.5 0.0
-1.81184 0.375 0.0
-1.85712 0.642857 0.0
-1.85693 0.547619 0.0
-1.85702 0.595238 0.0
-1.79917 0 0.0
-1.78482 0.0357143 0.0
-1.79917 0.116667 0.0
-1.76569 0.0666666 0.0
-1.85452 0.745455 0.0
-1.82689 0.692308 0.0
-1.81815 0.781818 0.0
-1.82497 0.825 0.0
-1.84997 1 0.0
-1.8333 0.958333 0.0
-1.81247 0.8875 0.0
-1.81247 0.925 0.0
-1.81742 0.218182 0.0
-1.82427 0.175 0.0
-1.77634 0.145455 0.0
-1.79144 0.242308 0.0
-1.78482 0.285714 0.0
-1.77469 0.332653 0.0
-1.81215 0.529762 0.0
-1.81194 0.422619 0.0
-1.81203 0.470238 0.0
-1.76714 0.392857 0.0
-1.81234 0.625 0.0
-1.79732 0.571429 0.0
-1.74896 0 0.0
-1.73222 0.0333333 0.0
-1.75398 0.105 0.0
-1.71883 0.07 0.0
-1.79227 0.730769 0.0
-1.78007 0.679121 0.0
-1.75765 0.769231 0.0
-1.78178 0.818182 0.0
-1.78996 0.86 0.0
-1.79996 1 0.0
-1.78568 0.964286 0.0
-1.76663 0.922222 0.0
-1.76569 0.1875 0.0
-1.73222 0.15 0.0
-1.74896 0.25 0.0
-1.73714 0.304762 0.0
-1.76743 0.537202 0.0
-1.72869 0.343878 0.0
-1.76732 0.485119 0.0
-1.76723 0.440476 0.0
-1.72243 0.410714 0.0
-1.76757 0.607143 0.0
-1.69875 0 0.0
-1.68369 0.035 0.0
-1.69875 0.1125 0.0
-1.66528 0.075 0.0
-1.74341 0.708974 0.0
-1.73324 0.665934 0.0
-1.70441 0.74478 0.0
-1.71423 0.785714 0.0
-1.72303 0.826923 0.0
-1.74541 0.854545 0.0
-1.74541 0.890909 0.0
-1.74996 1 0.0
-1.73745 0.9625 0.0
-1.71359 0.927273 0.0
-1.68716 0.153846 0.0
-1.7131 0.214286 0.0
-1.70725 0.275 0.0
-1.69712 0.321939 0.0
-1.72279 0.589286 0.0
-1.72261 0.5 0.0
-1.7227 0.544643 0.0
-1.6827 0.355102 0.0
-1.67773 0.428571 0.0
-1.70763 0.464286 0.0
-1.70369 0.62449 0.0
-1.64854 0 0.0
-1.63181 0.0375 0.0
-1.64137 0.142857 0.0
-1.61764 0.0769231 0.0
-1.69458 0.703846 0.0
-1.67471 0.657437 0.0
-1.66143 0.727637 0.0
-1.67125 0.768571 0.0
-1.67851 0.821429 0.0
-1.68841 0.861538 0.0
-1.70904 0.890909 0.0
-1.69995 1 0.0
-1.68176 0.963636 0.0
-1.67267 0.927273 0.0
-1.65427 0.187143 0.0
-1.66718 0.231429 0.0
-1.66554 0.3 0.0
-1.67802 0.571429 0.0
-1.67792 0.523809 0.0
-1.6367 0.366327 0.0
-1.63682 0.423469 0.0
-1.62568 0.502976 0.0
-1.6629 0.470238 0.0
-1.65254 0.618367 0.0
-1.6059 0.307143 0.0
-1.59833 0 0.0
-1.58288 0.0384615 0.0
-1.60563 0.169643 0.0
-1.58179 0.112271 0.0
-1.56964 0.0714286 0.0
-1.64574 0.690385 0.0
-1.62827 0.751429 0.0
-1.63371 0.791071 0.0
-1.64279 0.857143 0.0
-1.65378 0.896154 0.0
-1.64994 1 0.0
-1.6363 0.963636 0.0
-1.61916 0.930769 0.0
-1.61345 0.209107 0.0
-1.62126 0.248571 0.0
-1.56989 0.196429 0.0
-1.63324 0.553571 0.0
-1.58846 0.535714 0.0
-1.59408 0.361905 0.0
-1.59161 0.402211 0.0
-1.58832 0.464286 0.0
-1.61504 0.598581 0.0
-1.59683 0.64359 0.0
-1.57899 0.274107 0.0
-1.56176 0.322381 0.0
-1.54812 0 0.0
-1.53378 0.0357143 0.0
-1.54593 0.147619 0.0
-1.53385 0.0732143 0.0
-1.53393 0.110714 0.0
-1.58522 0.704286 0.0
-1.58709 0.745 0.0
-1.58896 0.785714 0.0
-1.60695 0.830357 0.0
-1.60707 0.892857 0.0
-1.59993 1 0.0
-1.58454 0.965385 0.0
-1.57135 0.928571 0.0
-1.55209 0.241071 0.0
-1.5291 0.198214 0.0
-1.56936 0.570918 0.0
-1.54369 0.517857 0.0
-1.5464 0.380952 0.0
-1.54564 0.427721 0.0
-1.54488 0.47449 0.0
-1.55026 0.606122 0.0
-1.54222 0.677143 0.0
-1.52943 0.282857 0.0
-1.52143 0.33619 0.0
-1.49792 0 0.0
-1.49802 0.05 0.0
-1.49822 0.15 0.0
-1.49312 0.1 0.0
-1.5423 0.717143 0.0
-1.54419 0.767857 0.0
-1.54727 0.819048 0.0
-1.57122 0.861905 0.0
-1.53553 0.914286 0.0
-1.54992 1 0.0
-1.53563 0.964286 0.0
-1.49842 0.25 0.0
-1.48831 0.2 0.0
-1.5214 0.558929 0.0
-1.49891 0.5 0.0
-1.49871 0.4 0.0
-1.47631 0.45 0.0
-1.49911 0.6 0.0
-1.49921 0.65 0.0
-1.49931 0.7 0.0
-1.48111 0.35 0.0
-1.48351 0.3 0.0
-1.44771 0 0.0
-1.44782 0.05 0.0
-1.44804 0.15 0.0
-1.44793 0.1 0.0
-1.49941 0.75 0.0
-1.49951 0.8 0.0
-1.49981 0.95 0.0
-1.49961 0.85 0.0
-1.49971 0.9 0.0
-1.49991 1 0.0
-1.44826 0.25 0.0
-1.43815 0.2 0.0
-1.47151 0.55 0.0
-1.44881 0.5 0.0
-1.44859 0.4 0.0
-1.42619 0.45 0.0
-1.44913 0.65 0.0
-1.44902 0.6 0.0
-1.44935 0.75 0.0
-1.44924 0.7 0.0
-1.43972 0.35 0.0
-1.43336 0.3 0.0
-1.3975 0 0.0
-1.39762 0.05 0.0
-1.39786 0.15 0.0
-1.39274 0.1 0.0
-1.44957 0.85 0.0
-1.44946 0.8 0.0
-1.4523 0.95 0.0
-1.44968 0.9 0.0
-1.4499 1 0.0
-1.3981 0.25 0.0
-1.38798 0.2 0.0
-1.42141 0.55 0.0
-1.3987 0.5 0.0
-1.39834 0.35 0.0
-1.37845 0.4 0.0
-1.37607 0.45 0.0
-1.40784 0.65 0.0
-1.39894 0.6 0.0
-1.41185 0.75 0.0
-1.39918 0.7 0.0
-1.38322 0.3 0.0
-1.34729 0 0.0
-1.34492 0.05 0.0
-1.34018 0.15 0.0
-1.34255 0.1 0.0
-1.40707 0.85 0.0
-1.39941 0.8 0.0
-1.39977 0.95 0.0
-1.39965 0.9 0.0
-1.39989 1 0.0
-1.33781 0.2 0.0
-1.33544 0.25 0.0
-1.37131 0.55 0.0
-1.34859 0.5 0.0
-1.33833 0.4 0.0
-1.3307 0.35 0.0
-1.32595 0.45 0.0
-1.34885 0.6 0.0
-1.36655 0.65 0.0
-1.36179 0.75 0.0
-1.34911 0.7 0.0
-1.33307 0.3 0.0
-1.29708 0 0.0
-1.29722 0.05 0.0
-1.2975 0.15 0.0
-1.29236 0.1 0.0
-1.35703 0.85 0.0
-1.34937 0.8 0.0
-1.34988 1 0.0
-1.34962 0.9 0.0
-1.35226 0.95 0.0
-1.28528 0.25 0.0
-1.28764 0.2 0.0
-1.28931 0.35 0.0
-1.32121 0.55 0.0
-1.29848 0.5 0.0
-1.28709 0.45 0.0
-1.2982 0.4 0.0
-1.29876 0.6 0.0
-1.31647 0.65 0.0
-1.29918 0.75 0.0
-1.29904 0.7 0.0
-1.28292 0.3 0.0
-1.24687 0 0.0
-1.24702 0.05 0.0
-1.24717 0.1 0.0
-1.24732 0.15 0.0
-1.29946 0.85 0.0
-1.29932 0.8 0.0
-1.29987 1 0.0
-1.29974 0.95 0.0
-1.30462 0.9 0.0
-1.24762 0.25 0.0
-1.23747 0.2 0.0
-1.24792 0.35 0.0
-1.22807 0.4 0.0
-1.27111 0.55 0.0
-1.24837 0.5 0.0
-1.24822 0.45 0.0
-1.24867 0.6 0.0
-1.26639 0.65 0.0
-1.26167 0.75 0.0
-1.24897 0.7 0.0
-1.23277 0.3 0.0
-1.19667 0 0.0
-1.19683 0.05 0.0
-1.18964 0.15 0.0
-1.19198 0.1 0.0
-1.25695 0.85 0.0
-1.24927 0.8 0.0
-1.25223 0.95 0.0
-1.24987 1 0.0
-1.24957 0.9 0.0
-1.1873 0.2 0.0
-1.18496 0.25 0.0
-1.18028 0.35 0.0
-1.17794 0.4 0.0
-1.1981 0.45 0.0
-1.19842 0.55 0.0
-1.19826 0.5 0.0
-1.19858 0.6 0.0
-1.19874 0.65 0.0
-1.19906 0.75 0.0
-1.1989 0.7 0.0
-1.18262 0.3 0.0
-1.14646 0 0.0
-1.14663 0.05 0.0
-1.1418 0.1 0.0
-1.13713 0.2 0.0
-1.14697 0.15 0.0
-1.20691 0.85 0.0
-1.20926 0.8 0.0
-1.20221 0.95 0.0
-1.19986 1 0.0
-1.20456 0.9 0.0
-1.13997 0.3 0.0
-1.14731 0.25 0.0
-1.13781 0.4 0.0
-1.13014 0.35 0.0
-1.12548 0.45 0.0
-1.14815 0.5 0.0
-1.15962 0.55 0.0
-1.14849 0.6 0.0
-1.15745 0.65 0.0
-1.16155 0.75 0.0
-1.14917 0.8 0.0
-1.14883 0.7 0.0
-1.09625 0 0.0
-1.09661 0.1 0.0
-1.09393 0.05 0.0
-1.09697 0.2 0.0
-1.08929 0.15 0.0
-1.15687 0.85 0.0
-1.14985 1 0.0
-1.15219 0.95 0.0
-1.14951 0.9 0.0
-1.09733 0.3 0.0
-1.08465 0.25 0.0
-1.09769 0.4 0.0
-1.08 0.35 0.0
-1.08661 0.45 0.0
-1.09804 0.5 0.0
-1.12082 0.55 0.0
-1.10916 0.8 0.0
-1.10629 0.7 0.0
-1.0984 0.6 0.0
-1.11616 0.65 0.0
-1.11149 0.75 0.0
-1.04604 0 0.0
-1.04623 0.05 0.0
-1.04642 0.1 0.0
-1.0468 0.2 0.0
-1.03911 0.15 0.0
-1.09948 0.9 0.0
-1.0993 0.85 0.0
-1.09984 1 0.0
-1.09966 0.95 0.0
-1.04718 0.3 0.0
-1.03449 0.25 0.0
-1.04756 0.4 0.0
-1.02986 0.35 0.0
-1.04775 0.45 0.0
-1.04794 0.5 0.0
-1.04813 0.55 0.0
-1.05911 0.8 0.0
-1.04831 0.6 0.0
-1.06376 0.7 0.0
-1.0485 0.65 0.0
-1.04888 0.75 0.0
-0.995833 0 0.0
-0.991231 0.1 0.0
-0.996033 0.05 0.0
-0.986629 0.2 0.0
-0.98893 0.15 0.0
-1.05447 0.9 0.0
-1.04926 0.85 0.0
-1.04983 1 0.0
-1.04964 0.95 0.0
-0.984328 0.25 0.0
-0.99703 0.3 0.0
-0.997429 0.4 0.0
-0.997628 0.45 0.0
-0.979726 0.35 0.0
-0.997827 0.5 0.0
-0.998027 0.55 0.0
-0.998226 0.6 0.0
-0.961416 0.475 0.0
-1.00907 0.8 0.0
-0.998426 0.65 0.0
-0.998625 0.7 0.0
-1.01138 0.75 0.0
-0.945625 0 0.0
-0.946044 0.1 0.0
-0.943334 0.05 0.0
-0.946463 0.2 0.0
-0.938752 0.15 0.0
-1.00444 0.9 0.0
-1.00675 0.85 0.0
-0.999821 1 0.0
-1.00213 0.95 0.0
-0.93417 0.25 0.0
-0.946881 0.3 0.0
-0.9473 0.4 0.0
-0.929588 0.35 0.0
-0.925005 0.45 0.0
-0.960371 0.525 0.0
-0.959325 0.575 0.0
-0.958279 0.625 0.0
-0.922714 0.5 0.0
-0.959017 0.8 0.0
-0.957233 0.675 0.0
-0.952999 0.7125 0.0
-0.948766 0.75 0.0
-0.895417 0 0.0
-0.895855 0.1 0.0
-0.893136 0.05 0.0
-0.896294 0.2 0.0
-0.888573 0.15 0.0
-0.949184 0.85 0.0
-0.954415 0.9 0.0
-0.949812 1 0.0
-0.949603 0.95 0.0
-0.884011 0.25 0.0
-0.896733 0.3 0.0
-0.874887 0.45 0.0
-0.879449 0.35 0.0
-0.897171 0.4 0.0
-0.920423 0.55 0.0
-0.918132 0.6 0.0
-0.915841 0.65 0.0
-0.872606 0.5 0.0
-0.908968 0.8 0.0
-0.91355 0.7 0.0
-0.898707 0.75 0.0
-0.845208 0 0.0
-0.845438 0.05 0.0
-0.845667 0.1 0.0
-0.845896 0.15 0.0
-0.833853 0.25 0.0
-0.846126 0.2 0.0
-0.899146 0.85 0.0
-0.904386 0.9 0.0
-0.899584 0.95 0.0
-0.899804 1 0.0
-0.838062 0.35 0.0
[...]
POINT_DATA 10839
VECTORS Velocity float
0.21 0 0.0
0.24 0 0.0
0.2275 0 0.0
0.2475 0 0.0
0.25 0 0.0
0.2475 0 0.0
0 0 0.0
0.0475 0 0.0
0.1275 0 0.0
0.09 0 0.0
0.09 0 0.0
0.1275 0 0.0
0.1875 0 0.0
0.16 0 0.0
0.195557 -2.40823e-05 0.0
0.242841 -3.28795e-05 0.0
0.215776 -2.86759e-05 0.0
0.231406 -3.23356e-05 0.0
0.248725 -3.50109e-05 0.0
0.24 0 0.0
0.24284 -3.28053e-05 0.0
0.24852 -3.37159e-05 0.0
0 0 0.0
0.0622239 -4.18158e-06 0.0
0.0322269 -2.76353e-06 0.0
0.16 0 0.0
0.1875 0 0.0
0.21 0 0.0
0.2275 0 0.0
0.193592 -2.70319e-05 0.0
0.138887 -1.49896e-05 0.0
0 0 0.0
0.0475 0 0.0
0.0998415 -1.04009e-05 0.0
0.0622206 -4.22838e-06 0.0
0.0998462 -1.0869e-05 0.0
0.138891 -1.51244e-05 0.0
0.17438 -3.79573e-05 0.0
0.201606 -5.20294e-05 0.0
0.235787 -6.35639e-05 0.0
0.244085 -6.65204e-05 0.0
0.223602 -8.52347e-05 0.0
0.249751 -6.95067e-05 0.0
0.249044 -7.74609e-05 0.0
0.231404 -3.28613e-05 0.0
0.244081 -6.57307e-05 0.0
0 0 0.0
0.0361081 -5.35455e-06 0.0
0.0736127 -1.49816e-05 0.0
0.0622491 -1.64271e-05 0.0
0.17437 -3.73955e-05 0.0
0.220162 -5.20184e-05 0.0
0.201594 -5.21051e-05 0.0
0.115548 -2.23923e-05 0.0
0.146676 -3.47304e-05 0.0
0 0 0.0
0.0360874 -3.60322e-06 0.0
0.0693661 -1.17045e-05 0.0
0.0899834 -2.32624e-05 0.0
0.109391 -3.14908e-05 0.0
0.146692 -3.40615e-05 0.0
0.178902 -6.37052e-05 0.0
0.206293 -8.33598e-05 0.0
0.214501 -0.00011242 0.0
0.238527 -9.97095e-05 0.0
0.24735 -0.000103843 0.0
0.229607 -0.000126984 0.0
0.226323 -8.95659e-05 0.0
0.249983 -0.000104359 0.0
0.246426 -0.000101522 0.0
0.23668 -9.55668e-05 0.0
0 0 0.0
0.0322505 -6.05954e-06 0.0
0.0956967 -3.57886e-05 0.0
0.0694294 -2.69771e-05 0.0
0.178876 -6.27309e-05 0.0
0.206269 -8.39873e-05 0.0
0.127476 -4.83337e-05 0.0
0.165873 -7.94365e-05 0.0
0.152325 -5.68294e-05 0.0
0 0 0.0
0.0360796 -5.18588e-06 0.0
0.0621958 -1.62514e-05 0.0
0.0956299 -3.64601e-05 0.0
0.127525 -4.88042e-05 0.0
0.156661 -7.09669e-05 0.0
0.115601 -5.60743e-05 0.0
0.193626 -0.000117232 0.0
0.218141 -0.000148454 0.0
0.24094 -0.000135327 0.0
0.247737 -0.000140363 0.0
0.25 -0.0001419 0.0
0.234398 -0.000171941 0.0
0.229576 -0.000125226 0.0
0.247727 -0.000140053 0.0
0.240919 -0.000135088 0.0
0 0 0.0
0.0344872 -8.40329e-06 0.0
0.103121 -5.51272e-05 0.0
0.0623031 -2.7345e-05 0.0
0.189727 -9.95621e-05 0.0
0.212988 -0.000139231 0.0
0.170534 -0.000107869 0.0
0.144329 -8.00042e-05 0.0
0 0 0.0
0.0398981 -8.94307e-06 0.0
0.0997861 -5.00782e-05 0.0
0.0693211 -2.65295e-05 0.0
0.170624 -0.000108002 0.0
0.144421 -8.17369e-05 0.0
0.124377 -8.29479e-05 0.0
0.18365 -0.000136658 0.0
0.204132 -0.000163708 0.0
0.222039 -0.000192858 0.0
0.249109 -0.000186476 0.0
0.244027 -0.000181491 0.0
0.24912 -0.000186485 0.0
0.238551 -0.000219145 0.0
0.234353 -0.000170929 0.0
0.244883 -0.000196629 0.0
0 0 0.0
0.0322918 -8.90828e-06 0.0
0.0940744 -5.79969e-05 0.0
0.0652175 -3.46434e-05 0.0
0.196696 -0.00014947 0.0
0.217871 -0.000183771 0.0
0.177437 -0.000151785 0.0
0.14869 -0.000105771 0.0
0.120329 -7.39699e-05 0.0
0 0 0.0
0.0343909 -8.48303e-06 0.0
0.0716441 -3.47308e-05 0.0
0.152425 -0.000118702 0.0
0.127615 -0.000103141 0.0
0.187579 -0.000169687 0.0
0.211951 -0.000211511 0.0
0.248605 -0.000231723 0.0
0.225686 -0.000239735 0.0
0.249783 -0.000233407 0.0
0.246474 -0.000229462 0.0
0.242065 -0.000268791 0.0
0.23849 -0.000218529 0.0
0 0 0.0
0.0338741 -1.11802e-05 0.0
0.0999936 -7.76099e-05 0.0
0.0695454 -4.61973e-05 0.0
0.20626 -0.000197979 0.0
0.222404 -0.000230905 0.0
0.189975 -0.00020587 0.0
0.168253 -0.000166149 0.0
0.143003 -0.00012734 0.0
0.124193 -9.38529e-05 0.0
0.0970837 -6.29761e-05 0.0
0 0 0.0
0.036021 -1.08193e-05 0.0
0.0673147 -3.72567e-05 0.0
0.130335 -0.000124815 0.0
0.168483 -0.000166965 0.0
0.199473 -0.00021797 0.0
0.218379 -0.000255948 0.0
0.241992 -0.000269453 0.0
0.25 -0.000281297 0.0
0.247989 -0.000278011 0.0
0.229082 -0.000288942 0.0
0.244938 -0.000320423 0.0
0.248741 -0.000295275 0.0
0.234445 -0.000276172 0.0
0 0 0.0
0.0362324 -1.44333e-05 0.0
0.12266 -0.000128001 0.0
0.0712298 -5.47138e-05 0.0
0.208349 -0.000242449 0.0
0.225126 -0.000288761 0.0
0.198047 -0.000251886 0.0
0.177724 -0.000208457 0.0
0.146525 -0.000153577 0.0
0.119131 -0.000107167 0.0
0.0970507 -7.15092e-05 0.0
0 0 0.0
0.0349389 -1.21245e-05 0.0
0.0672774 -4.19881e-05 0.0
0.152302 -0.000174735 0.0
0.178018 -0.000213396 0.0
0.210117 -0.000270113 0.0
0.244858 -0.000320349 0.0
0.24942 -0.000329107 0.0
0.232226 -0.000340266 0.0
0.244198 -0.00036486 0.0
0.249988 -0.000389562 0.0
0.249132 -0.000345897 0.0
0.235912 -0.000331143 0.0
0.212964 -0.000330284 0.0
0 0 0.0
0.0371613 -1.70222e-05 0.0
0.141112 -0.000178403 0.0
0.0999592 -0.000107758 0.0
0.0666006 -5.33533e-05 0.0
0.213628 -0.000295354 0.0
0.186606 -0.000257121 0.0
0.165083 -0.000209141 0.0
0.122239 -0.000128679 0.0
0.0928651 -7.85179e-05 0.0
0 0 0.0
0.0349092 -1.35491e-05 0.0
0.064226 -4.46229e-05 0.0
0.165599 -0.000223655 0.0
0.186969 -0.000262905 0.0
0.158126 -0.000234171 0.0
0.247091 -0.000374746 0.0
0.248691 -0.000431097 0.0
0.231053 -0.000382396 0.0
0.240527 -0.000408149 0.0
0.248758 -0.000430726 0.0
0.240202 -0.000381279 0.0
0.229255 -0.000374723 0.0
0.199183 -0.000323444 0.0
0.218636 -0.000386777 0.0
0 0 0.0
0.0346491 -1.67093e-05 0.0
0.126172 -0.000173504 0.0
0.0681794 -6.03354e-05 0.0
0.0988219 -0.000117434 0.0
0.208081 -0.000338231 0.0
0.189758 -0.000294811 0.0
0.168124 -0.000244615 0.0
0.140618 -0.000177047 0.0
0.0954075 -9.35021e-05 0.0
0 0 0.0
0.0332532 -1.38759e-05 0.0
0.066055 -5.31736e-05 0.0
0.183226 -0.000305705 0.0
0.159265 -0.000262249 0.0
0.244898 -0.000444602 0.0
0.24966 -0.000488243 0.0
0.235962 -0.00044782 0.0
0.244859 -0.000473368 0.0
0.249378 -0.000487016 0.0
0.238619 -0.000450299 0.0
0.218418 -0.000406998 0.0
0.203106 -0.000377666 0.0
0.223372 -0.00044247 0.0
0 0 0.0
0.0478066 -3.33997e-05 0.0
0.127924 -0.000197963 0.0
0.0904266 -0.000110274 0.0
0.202606 -0.000363803 0.0
0.177964 -0.000299134 0.0
0.147884 -0.00022436 0.0
0.118717 -0.000146955 0.0
0.0780253 -7.84887e-05 0.0
0 0 0.0
0.0342313 -1.6358e-05 0.0
0.187835 -0.000362223 0.0
0.160404 -0.00029196 0.0
0.246451 -0.000508374 0.0
0.25 -0.000547886 0.0
0.240141 -0.000517313 0.0
0.247578 -0.000570471 0.0
0.239858 -0.000516944 0.0
0.22729 -0.00047863 0.0
0.209726 -0.000425778 0.0
0.227726 -0.000502368 0.0
0.210292 -0.000443673 0.0
0 0 0.0
0.0478704 -3.72589e-05 0.0
0.12802 -0.000221121 0.0
0.0905095 -0.000121288 0.0
0.187167 -0.000360368 0.0
0.159614 -0.000282382 0.0
0.0471974 -3.27334e-05 0.0
0.12708 -0.000195233 0.0
0.0895864 -0.00010792 0.0
0 0 0.0
0.187912 -0.000407264 0.0
0.160496 -0.000326926 0.0
0.247419 -0.000577035 0.0
0.249999 -0.000617575 0.0
0.240174 -0.000583463 0.0
0.247595 -0.000641576 0.0
0.227243 -0.000539176 0.0
0.239825 -0.000582389 0.0
0.18709 -0.000405055 0.0
0.209663 -0.000479304 0.0
0.227767 -0.000551693 0.0
0.210358 -0.00049892 0.0
0 0 0.0
0.0479406 -4.08677e-05 0.0
0.128128 -0.00024595 0.0
0.090622 -0.00013606 0.0
0.126984 -0.000218878 0.0
0.159526 -0.000316998 0.0
0.0471379 -3.63017e-05 0.0
0.0894957 -0.000119984 0.0
0 0 0.0
0.187999 -0.00045499 0.0
0.160598 -0.000364576 0.0
0.247402 -0.000647932 0.0
0.249999 -0.000692141 0.0
0.227812 -0.000605364 0.0
0.240226 -0.000682704 0.0
0.247614 -0.000718272 0.0
0.227197 -0.000590518 0.0
0.239788 -0.000652656 0.0
0.187025 -0.000439424 0.0
0.209591 -0.00053643 0.0
0.210432 -0.000557905 0.0
0 0 0.0
0.048023 -4.54528e-05 0.0
0.128267 -0.000276748 0.0
0.0907366 -0.000150322 0.0
0.126894 -0.000239149 0.0
0.159426 -0.000353107 0.0
0.0470656 -4.03195e-05 0.0
0.0893954 -0.000132475 0.0
0 0 0.0
0.160713 -0.000404537 0.0
0.188123 -0.00051892 0.0
0.247381 -0.000723932 0.0
0.249999 -0.000772191 0.0
0.24026 -0.000745667 0.0
0.227897 -0.000700416 0.0
0.247636 -0.000799621 0.0
0.239746 -0.000727534 0.0
0.227148 -0.000646528 0.0
0.186931 -0.000488948 0.0
0.209511 -0.000597163 0.0
0.210516 -0.00062168 0.0
0 0 0.0
0.0481059 -5.01506e-05 0.0
0.128382 -0.000301818 0.0
0.0908631 -0.000165887 0.0
0.126777 -0.000264698 0.0
0.159315 -0.000392115 0.0
0 0 0.0
0.0892834 -0.000146515 0.0
0.0469926 -4.42979e-05 0.0
0.188235 -0.000577306 0.0
0.160841 -0.000448501 0.0
0.227955 -0.000763839 0.0
0.247359 -0.000806347 0.0
0.249998 -0.000858923 0.0
0.247654 -0.000868246 0.0
0.240298 -0.000811505 0.0
0.239699 -0.00080869 0.0
0.227081 -0.000719095 0.0
0.186796 -0.000555748 0.0
0.20942 -0.000663578 0.0
0.210609 -0.000689832 0.0
0 0 0.0
0.0482003 -5.52999e-05 0.0
0.0909886 -0.000180807 0.0
0.128529 -0.000333035 0.0
0.126627 -0.000296503 0.0
0.15919 -0.000434009 0.0
0 0 0.0
0.0469052 -4.87054e-05 0.0
0.0891735 -0.000159443 0.0
0.188329 -0.000622762 0.0
0.160984 -0.000496291 0.0
0.228018 -0.000831955 0.0
0.240371 -0.000937706 0.0
0.247333 -0.000895731 0.0
0.249997 -0.000952398 0.0
0.247675 -0.00094048 0.0
0.239647 -0.000896535 0.0
0.227007 -0.000797836 0.0
0.186706 -0.000599891 0.0
0.20932 -0.000734367 0.0
0.210713 -0.000764538 0.0
0 0 0.0
0.0483054 -6.07341e-05 0.0
0.12872 -0.000373816 0.0
0.0911582 -0.000202031 0.0
0.126503 -0.000322238 0.0
0.159052 -0.000479346 0.0
0.0468179 -5.28742e-05 0.0
0 0 0.0
0.0890256 -0.00017686 0.0
0.161142 -0.000548378 0.0
0.188499 -0.000705137 0.0
0.228136 -0.000953578 0.0
0.240431 -0.00103955 0.0
0.247702 -0.00104217 0.0
0.247291 -0.00103651 0.0
0.249996 -0.00105585 0.0
0.239588 -0.000994143 0.0
0.226894 -0.000912913 0.0
0.18654 -0.000678516 0.0
0.209208 -0.000812682 0.0
0.210827 -0.000845358 0.0
0 0 0.0
0.04842 -6.66765e-05 0.0
0.0913283 -0.000221702 0.0
0.161317 -0.000603668 0.0
0.128876 -0.000405488 0.0
0.126343 -0.000354665 0.0
0.15893 -0.000518336 0.0
0.0467165 -5.8332e-05 0.0
0 0 0.0
0.0888903 -0.000192747 0.0
0.210935 -0.000920346 0.0
0.188616 -0.000761128 0.0
0.240483 -0.00112554 0.0
0.228233 -0.00105665 0.0
0.24775 -0.00120312 0.0
0.249995 -0.00116709 0.0
0.247265 -0.0011204 0.0
0.239523 -0.00109846 0.0
0.226815 -0.000990908 0.0
0.186428 -0.000730413 0.0
0.158728 -0.000582654 0.0
0.209084 -0.000896536 0.0
0 0 0.0
0.0914988 -0.000242532 0.0
0.048555 -7.42071e-05 0.0
0.161471 -0.000654414 0.0
0.129108 -0.000455136 0.0
0.126167 -0.000390473 0.0
0 0 0.0
0.0466055 -6.40042e-05 0.0
0.0887101 -0.000213677 0.0
0.211053 -0.000999927 0.0
0.188825 -0.000862803 0.0
0.24054 -0.0012181 0.0
0.228342 -0.00116807 0.0
0.247776 -0.0013021 0.0
0.249993 -0.00128986 0.0
0.247237 -0.0012126 0.0
0.158578 -0.000627072 0.0
0.208967 -0.000973877 0.0
0.23945 -0.00121146 0.0
0.226729 -0.00107582 0.0
0.186266 -0.000805578 0.0
0 0 0.0
0.048688 -8.10223e-05 0.0
0.0917026 -0.000266768 0.0
0.161682 -0.000721027 0.0
0.129335 -0.000502139 0.0
0.0885279 -0.000233908 0.0
0.125942 -0.000435356 0.0
0 0 0.0
0.0464779 -7.06163e-05 0.0
0.211205 -0.00110372 0.0
0.189016 -0.000953022 0.0
0.240617 -0.00134489 0.0
0.228462 -0.00129057 0.0
0.247806 -0.00140794 0.0
0.249992 -0.00142534 0.0
0.247178 -0.00139639 0.0
0.158376 -0.000689547 0.0
0.23937 -0.00133756 0.0
0.208841 -0.00105513 0.0
0.226574 -0.00122895 0.0
0.186039 -0.000911585 0.0
0 0 0.0
0.0919529 -0.000297039 0.0
0.0488418 -8.92124e-05 0.0
0.161962 -0.000810219 0.0
0.129583 -0.000553839 0.0
0.0883494 -0.000254507 0.0
0.125724 -0.000479552 0.0
0 0 0.0
0.046343 -7.76146e-05 0.0
0.189225 -0.00105328 0.0
0.211373 -0.001219 0.0
0.240704 -0.00148646 0.0
0.247849 -0.00155172 0.0
0.228594 -0.00142466 0.0
0.249989 -0.00157052 0.0
0.247133 -0.00154375 0.0
0.239281 -0.00147303 0.0
0.249559 -0.00168383 0.0
0.15815 -0.000758088 0.0
0.226442 -0.00135564 0.0
0.208624 -0.00119633 0.0
0.185888 -0.000979724 0.0
0 0 0.0
0.0921821 -0.00032482 0.0
0.0490224 -9.94292e-05 0.0
0.162171 -0.000877625 0.0
0.129857 -0.000610898 0.0
0.0881326 -0.000279308 0.0
0.125522 -0.000519952 0.0
0 0 0.0
0.0462038 -8.48899e-05 0.0
0.189457 -0.00116284 0.0
0.211559 -0.00134633 0.0
0.240794 -0.00163899 0.0
0.228741 -0.00157484 0.0
0.247915 -0.00179146 0.0
0.249163 -0.00168326 0.0
0.243771 -0.00163337 0.0
0.233388 -0.00153401 0.0
0.249984 -0.00182161 0.0
0.157904 -0.000833342 0.0
0.21802 -0.00138911 0.0
0.203213 -0.00125628 0.0
0.185612 -0.00110261 0.0
0 0 0.0
0.0924568 -0.000358237 0.0
0.0492099 -0.000109034 0.0
0.162454 -0.000969437 0.0
0.130161 -0.000674853 0.0
0.125221 -0.000579658 0.0
0.0878937 -0.000307065 0.0
0 0 0.0
0.0460356 -9.29775e-05 0.0
0.189713 -0.00128502 0.0
0.211764 -0.00148731 0.0
0.247963 -0.00197478 0.0
0.228901 -0.00173921 0.0
0.240901 -0.00181056 0.0
0.247049 -0.00179818 0.0
0.239117 -0.00172081 0.0
0.226195 -0.00159089 0.0
0.249976 -0.00200866 0.0
0.15763 -0.000917359 0.0
0.208296 -0.00140928 0.0
0.185363 -0.00121382 0.0
0 0 0.0
0.0494074 -0.000119527 0.0
0.0927612 -0.000396234 0.0
0.130445 -0.000734189 0.0
0.189996 -0.00141847 0.0
0.162769 -0.00107135 0.0
0.124931 -0.000637167 0.0
0.0876307 -0.000337815 0.0
0.045857 -0.000102241 0.0
0 0 0.0
0.229047 -0.00188924 0.0
0.211991 -0.00164562 0.0
0.248008 -0.00213359 0.0
0.241012 -0.00200215 0.0
0.226024 -0.00175048 0.0
0.246984 -0.00198116 0.0
0.238996 -0.00189511 0.0
0.24997 -0.00221484 0.0
0.185092 -0.00133362 0.0
0.157268 -0.00102574 0.0
0.208002 -0.00159492 0.0
0 0 0.0
0.0496365 -0.000132672 0.0
0.0931348 -0.000442509 0.0
0.130811 -0.00081074 0.0
0.190227 -0.00153347 0.0
0.16319 -0.00121394 0.0
0.124614 -0.000699384 0.0
0.0873136 -0.00037484 0.0
0.0456628 -0.000111992 0.0
0 0 0.0
0.124262 -0.00076985 0.0
0.229203 -0.00204676 0.0
0.21232 -0.00188086 0.0
0.241187 -0.0023051 0.0
0.248053 -0.00230163 0.0
0.225764 -0.00198997 0.0
0.238866 -0.00208474 0.0
0.246914 -0.00218449 0.0
0.249956 -0.00244227 0.0
0.184793 -0.00146517 0.0
0.156932 -0.00113059 0.0
0.207751 -0.00175698 0.0
0 0 0.0
0.0498895 -0.000146575 0.0
0.0935136 -0.000490529 0.0
0.131217 -0.000898785 0.0
0.190567 -0.00169585 0.0
0.163587 -0.0013473 0.0
0.0454449 -0.0001244 0.0
0.0869903 -0.000413437 0.0
0 0 0.0
0.12394 -0.000832294 0.0
0.22941 -0.00226826 0.0
0.212607 -0.00208507 0.0
0.241327 -0.00254798 0.0
0.248112 -0.00254433 0.0
0.225582 -0.00215411 0.0
0.238722 -0.0022931 0.0
0.249943 -0.00269474 0.0
0.246796 -0.00251416 0.0
0.184548 -0.00156915 0.0
0.156562 -0.00124213 0.0
0.207473 -0.00192886 0.0
0 0 0.0
0.0501676 -0.000161887 0.0
0.0939312 -0.000543194 0.0
0.131736 -0.00101181 0.0
0.191036 -0.00192923 0.0
0.212919 -0.00231545 0.0
0.164023 -0.00149879 0.0
0.045222 -0.000136166 0.0
0.0866392 -0.000454351 0.0
0 0 0.0
0.123526 -0.000913609 0.0
0.229718 -0.00259909 0.0
0.241446 -0.00276687 0.0
0.248176 -0.00281213 0.0
0.249926 -0.00290363 0.0
0.225391 -0.00232606 0.0
0.238553 -0.00252605 0.0
0.246699 -0.00276918 0.0
0.156157 -0.00136431 0.0
0.184195 -0.00172194 0.0
0.207166 -0.00211628 0.0
0 0 0.0
0.0504977 -0.000181572 0.0
0.0944005 -0.000606733 0.0
0.132248 -0.00112997 0.0
0.191354 -0.00209263 0.0
0.213261 -0.00256898 0.0
0.164509 -0.00166995 0.0
0.0449626 -0.000149328 0.0
0.0862526 -0.00049907 0.0
0 0 0.0
0.155808 -0.00146179 0.0
0.0858312 -0.000545141 0.0
0.123002 -0.00101351 0.0
0.229975 -0.00289651 0.0
0.24157 -0.00299411 0.0
0.248269 -0.0032514 0.0
0.249911 -0.00312274 0.0
0.246616 -0.00298628 0.0
0.225133 -0.00255155 0.0
0.238295 -0.00288547 0.0
0.183704 -0.00192712 0.0
0.206881 -0.00229343 0.0
0.230204 -0.0031522 0.0
0 0 0.0
0.0508475 -0.000203006 0.0
0.132818 -0.00126615 0.0
0.0949236 -0.000681142 0.0
0.213641 -0.00286454 0.0
0.191929 -0.0023956 0.0
0.165048 -0.00186557 0.0
0.0446655 -0.000164016 0.0
0 0 0.0
0.183378 -0.0020645 0.0
0.155332 -0.00159887 0.0
0.122496 -0.00110969 0.0
0.0443492 -0.00018115 0.0
0.085367 -0.000597306 0.0
0.241741 -0.00332007 0.0
0.24832 -0.00351854 0.0
0.249874 -0.00344582 0.0
0.249843 -0.00371408 0.0
0.246518 -0.00321623 0.0
0.22484 -0.00280085 0.0
0.23807 -0.00317197 0.0
0.206568 -0.00247119 0.0
0.230439 -0.00343731 0.0
0.0512231 -0.000228289 0.0
0 0 0.0
0.133353 -0.00139577 0.0
0.0955072 -0.000765375 0.0
0.214053 -0.00319525 0.0
0.192316 -0.0026076 0.0
0.165648 -0.00209278 0.0
0 0 0.0
0.182911 -0.00224778 0.0
0.154702 -0.00176932 0.0
0.122036 -0.00118732 0.0
0.0440267 -0.000196751 0.0
0.0848646 -0.000650383 0.0
0.241987 -0.0038426 0.0
0.248372 -0.00379943 0.0
0.2498 -0.00399579 0.0
0.246313 -0.00368636 0.0
0.224521 -0.00306537 0.0
0.237829 -0.00348163 0.0
0.20604 -0.0027753 0.0
0.23076 -0.00383136 0.0
0 0 0.0
0.0516638 -0.000259829 0.0
0.134051 -0.00157522 0.0
0.0961025 -0.000857189 0.0
0.166313 -0.00235074 0.0
0.214505 -0.00357581 0.0
0.19302 -0.0030028 0.0
0 0 0.0
0 0 0.0
0.182392 -0.00244748 0.0
0.154122 -0.00192375 0.0
0.121448 -0.00128885 0.0
0.0843202 -0.000705058 0.0
0.0436572 -0.000212889 0.0
0.242176 -0.00426815 0.0
0.248427 -0.00420767 0.0
0.237606 -0.00374771 0.0
0.249731 -0.00440582 0.0
0.246133 -0.00405974 0.0
0.224158 -0.00335598 0.0
0.205577 -0.00302395 0.0
0.242326 -0.00465012 0.0
0.231086 -0.00427498 0.0
0.0521596 -0.000293746 0.0
0.0968351 -0.000969253 0.0
0.134838 -0.00178955 0.0
0.166903 -0.00259617 0.0
0.214999 -0.004004 0.0
0.193487 -0.00329107 0.0
0 0 0.0
0 0 0.0
0.153623 -0.00204067 0.0
0.181677 -0.00270193 0.0
0.0837921 -0.000751772 0.0
0.120713 -0.00140489 0.0
0.0432554 -0.000231353 0.0
0.248502 -0.00486186 0.0
0.249631 -0.00486337 0.0
0.205069 -0.00328719 0.0
0.237357 -0.00402484 0.0
0.245978 -0.00437281 0.0
0.223601 -0.00377425 0.0
0.242484 -0.00505029 0.0
0.23158 -0.00496519 0.0
0.215527 -0.00449702 0.0
0.0527628 -0.000338241 0.0
0.0976721 -0.00111271 0.0
0.135862 -0.00208169 0.0
0.167713 -0.00293531 0.0
0.194338 -0.00382862 0.0
0 0 0.0
0 0 0.0
0.152808 -0.00222594 0.0
0.181036 -0.00292314 0.0
0.0831031 -0.000811006 0.0
0.120019 -0.00150463 0.0
0.0428071 -0.00024805 0.0
0.245797 -0.00470596 0.0
0.249506 -0.00535518 0.0
0.24852 -0.00539285 0.0
0.204504 -0.00356295 0.0
0.237014 -0.00440527 0.0
0.223124 -0.00412141 0.0
0.180333 -0.00314649 0.0
0.242742 -0.00585792 0.0
0 0 0.0
0.231942 -0.00557103 0.0
0.195096 -0.0043431 0.0
0.21609 -0.00505363 0.0
0.0534005 -0.000391747 0.0
0.136726 -0.00234773 0.0
0.0987383 -0.00131179 0.0
0.168798 -0.00344582 0.0
0 0 0.0
0 0 0.0
0 0 0.0
0 0 0.0
0 0 0.0
0.0423728 -0.000261833 0.0
0.119269 -0.00160597 0.0
0.152059 -0.00238618 0.0
0.0824975 -0.000859296 0.0
0.245524 -0.00515605 0.0
0.249337 -0.00589991 0.0
0.248527 -0.0059769 0.0
0.222685 -0.00440457 0.0
0.20387 -0.00385202 0.0
0.236434 -0.0049782 0.0
0.203281 -0.00410433 0.0
0.179757 -0.00331155 0.0
0.242903 -0.00653137 0.0
0.232325 -0.00623477 0.0
0 0 0.0
9.05634e-05 -4.09261e-05 0.0
0 0 0.0
-0.000240595 0.00109583 0.0
0.216697 -0.0057005 0.0
0.195715 -0.00477614 0.0
0.0542105 -0.000464694 0.0
0.137856 -0.00270751 0.0
0.0998604 -0.00153435 0.0
0.169829 -0.00395721 0.0
0 0 0.0
0 0 0.0
0 0 0.0
-0.000166612 0.000484311 0.0
1.11803e-05 -0.000162887 0.0
9.83843e-05 -0.000114866 0.0
0 0 0.0
0.0418841 -0.000278458 0.0
0.118596 -0.00168535 0.0
0.151247 -0.00254154 0.0
0.0817172 -0.000914247 0.0
0.245206 -0.00565572 0.0
0.249119 -0.00649294 0.0
0.248495 -0.0066151 0.0
0.2222 -0.00470935 0.0
0.236051 -0.00534406 0.0
0.20263 -0.00435704 0.0
0.178712 -0.00359019 0.0
0.243053 -0.00727004 0.0
0.235741 -0.0070259 0.0
0.225578 -0.00663179 0.0
0 0 0.0
0.000178783 -2.7219e-05 0.0
0 0 0.0
0 0 0.0
-0.000884235 0.00275133 0.0
-0.000790918 0.00163907 0.0
0.212539 -0.00612561 0.0
0.196584 -0.0054411 0.0
0.101027 -0.00178033 0.0
0.0550826 -0.000557701 0.0
0.139134 -0.00315254 0.0
0.170954 -0.00456037 0.0
0 0 0.0
-0.000212414 0.000100002 0.0
-0.000489032 0.000692184 0.0
-6.6804e-05 -5.12065e-05 0.0
3.52522e-05 2.7405e-05 0.0
0 0 0.0
0.0413703 -0.000293804 0.0
0.117755 -0.00177613 0.0
0.150375 -0.00268654 0.0
0.0809611 -0.000961894 0.0
0.244819 -0.00618896 0.0
0.248845 -0.00713515 0.0
0.248417 -0.00731616 0.0
0.221295 -0.00523917 0.0
0.235616 -0.005714 0.0
0.201783 -0.00467153 0.0
0.149429 -0.00284074 0.0
0.177777 -0.00382177 0.0
0.243145 -0.00791072 0.0
0.232945 -0.00753821 0.0
0.217782 -0.00703444 0.0
0 0 0.0
0.00011556 4.90565e-05 0.0
0 0 0.0
0 0 0.0
0 0 0.0
0 0 0.0
-0.00136868 0.0017807 0.0
-0.000270566 0.00251444 0.0
-0.000946165 0.00375482 0.0
-0.00215653 0.00503105 0.0
-0.00172099 0.00323516 0.0
0 0 0.0
-9.63177e-05 0.00436024 0.0
0.197746 -0.00644816 0.0
0.171934 -0.00514576 0.0
0 0 0.0
0.0562301 -0.000692411 0.0
0.102518 -0.00213132 0.0
0.140814 -0.00383273 0.0
0 0 0.0
0 0 0.0
-0.00072291 0.000713395 0.0