# vtk DataFile Version 3.0
Mesh NS-CD Problem
ASCII
DATASET UNSTRUCTURED_GRID
POINTS 10839 float
-2 0.3 0.0
-2 0.4 0.0
-2 0.35 0.0
-2 0.45 0.0
-2 0.5 0.0
-2 0.55 0.0
-2 0 0.0
-2 0.05 0.0
-2 0.85 0.0
-2 0.9 0.0
-2 0.1 0.0
-2 0.15 0.0
-2 0.25 0.0
-2 0.2 0.0
-1.96653 0.266667 0.0
-1.96524 0.415385 0.0
-1.96485 0.315 0.0
-1.96348 0.363636 0.0
-1.96414 0.464286 0.0
-2 0.6 0.0
-1.96538 0.584615 0.0
-1.96538 0.538462 0.0
-1.94979 0 0.0
-1.96653 0.0666666 0.0
-1.93306 0.0333333 0.0
-2 0.8 0.0
-2 0.75 0.0
-2 0.7 0.0
-2 0.65 0.0
-1.96249 0.7375 0.0
-1.96666 0.833333 0.0
-2 1 0.0
-2 0.95 0.0
-1.96249 0.8875 0.0
-1.96666 0.933333 0.0
-1.96234 0.1125 0.0
-1.96653 0.166667 0.0
-1.93724 0.225 0.0
-1.92971 0.28 0.0
-1.93048 0.380769 0.0
-1.93048 0.423077 0.0
-1.89958 0.3375 0.0
-1.9292 0.484203 0.0
-1.92117 0.530907 0.0
-1.96363 0.636364 0.0
-1.93076 0.576923 0.0
-1.89958 0 0.0
-1.88703 0.0375 0.0
-1.90963 0.08 0.0
-1.86611 0.0666666 0.0
-1.93749 0.775 0.0
-1.93635 0.672727 0.0
-1.92999 0.72 0.0
-1.93332 0.866667 0.0
-1.92856 0.821429 0.0
-1.94999 1 0.0
-1.92499 0.9625 0.0
-1.92499 0.925 0.0
-1.89998 0.9 0.0
-1.89958 0.125 0.0
-1.92827 0.178571 0.0
-1.89958 0.233333 0.0
-1.89045 0.290909 0.0
-1.86096 0.311538 0.0
-1.89241 0.392857 0.0
-1.89334 0.448489 0.0
-1.85655 0.357143 0.0
-1.89614 0.653846 0.0
-1.89427 0.504121 0.0
-1.8952 0.559753 0.0
-1.89614 0.615385 0.0
-1.84937 0 0.0
-1.83264 0.0333333 0.0
-1.85655 0.107143 0.0
-1.81172 0.075 0.0
-1.89998 0.766667 0.0
-1.89089 0.709091 0.0
-1.87498 0.85 0.0
-1.85998 0.79 0.0
-1.88748 0.8125 0.0
-1.89998 1 0.0
-1.88748 0.9625 0.0
-1.86664 0.933333 0.0
-1.85712 0.892857 0.0
-1.87448 0.15 0.0
-1.86611 0.194444 0.0
-1.83264 0.133333 0.0
-1.83264 0.2625 0.0
-1.82068 0.321429 0.0
-1.85664 0.404762 0.0
-1.85674 0.452381 0.0
-1.85683 0.5 0.0
-1.81184 0.375 0.0
-1.85712 0.642857 0.0
-1.85693 0.547619 0.0
-1.85702 0.595238 0.0
-1.79917 0 0.0
-1.78482 0.0357143 0.0
-1.79917 0.116667 0.0
-1.76569 0.0666666 0.0
-1.85452 0.745455 0.0
-1.82689 0.692308 0.0
-1.81815 0.781818 0.0
-1.82497 0.825 0.0
-1.84997 1 0.0
-1.8333 0.958333 0.0
-1.81247 0.8875 0.0
-1.81247 0.925 0.0
-1.81742 0.218182 0.0
-1.82427 0.175 0.0
-1.77634 0.145455 0.0
-1.79144 0.242308 0.0
-1.78482 0.285714 0.0
-1.77469 0.332653 0.0
-1.81215 0.529762 0.0
-1.81194 0.422619 0.0
-1.81203 0.470238 0.0
-1.76714 0.392857 0.0
-1.81234 0.625 0.0
-1.79732 0.571429 0.0
-1.74896 0 0.0
-1.73222 0.0333333 0.0
-1.75398 0.105 0.0
-1.71883 0.07 0.0
-1.79227 0.730769 0.0
-1.78007 0.679121 0.0
-1.75765 0.769231 0.0
-1.78178 0.818182 0.0
-1.78996 0.86 0.0
-1.79996 1 0.0
-1.78568 0.964286 0.0
-1.76663 0.922222 0.0
-1.76569 0.1875 0.0
-1.73222 0.15 0.0
-1.74896 0.25 0.0
-1.73714 0.304762 0.0
-1.76743 0.537202 0.0
-1.72869 0.343878 0.0
-1.76732 0.485119 0.0
-1.76723 0.440476 0.0
-1.72243 0.410714 0.0
-1.76757 0.607143 0.0
-1.69875 0 0.0
-1.68369 0.035 0.0
-1.69875 0.1125 0.0
-1.66528 0.075 0.0
-1.74341 0.708974 0.0
-1.73324 0.665934 0.0
-1.70441 0.74478 0.0
-1.71423 0.785714 0.0
-1.72303 0.826923 0.0
-1.74541 0.854545 0.0
-1.74541 0.890909 0.0
-1.74996 1 0.0
-1.73745 0.9625 0.0
-1.71359 0.927273 0.0
-1.68716 0.153846 0.0
-1.7131 0.214286 0.0
-1.70725 0.275 0.0
-1.69712 0.321939 0.0
-1.72279 0.589286 0.0
-1.72261 0.5 0.0
-1.7227 0.544643 0.0
-1.6827 0.355102 0.0
-1.67773 0.428571 0.0
-1.70763 0.464286 0.0
-1.70369 0.62449 0.0
-1.64854 0 0.0
-1.63181 0.0375 0.0
-1.64137 0.142857 0.0
-1.61764 0.0769231 0.0
-1.69458 0.703846 0.0
-1.67471 0.657437 0.0
-1.66143 0.727637 0.0
-1.67125 0.768571 0.0
-1.67851 0.821429 0.0
-1.68841 0.861538 0.0
-1.70904 0.890909 0.0
-1.69995 1 0.0
-1.68176 0.963636 0.0
-1.67267 0.927273 0.0
-1.65427 0.187143 0.0
-1.66718 0.231429 0.0
-1.66554 0.3 0.0
-1.67802 0.571429 0.0
-1.67792 0.523809 0.0
-1.6367 0.366327 0.0
-1.63682 0.423469 0.0
-1.62568 0.502976 0.0
-1.6629 0.470238 0.0
-1.65254 0.618367 0.0
-1.6059 0.307143 0.0
-1.59833 0 0.0
-1.58288 0.0384615 0.0
-1.60563 0.169643 0.0
-1.58179 0.112271 0.0
-1.56964 0.0714286 0.0
-1.64574 0.690385 0.0
-1.62827 0.751429 0.0
-1.63371 0.791071 0.0
-1.64279 0.857143 0.0
-1.65378 0.896154 0.0
-1.64994 1 0.0
-1.6363 0.963636 0.0
-1.61916 0.930769 0.0
-1.61345 0.209107 0.0
-1.62126 0.248571 0.0
-1.56989 0.196429 0.0
-1.63324 0.553571 0.0
-1.58846 0.535714 0.0
-1.59408 0.361905 0.0
-1.59161 0.402211 0.0
-1.58832 0.464286 0.0
-1.61504 0.598581 0.0
-1.59683 0.64359 0.0
-1.57899 0.274107 0.0
-1.56176 0.322381 0.0
-1.54812 0 0.0
-1.53378 0.0357143 0.0
-1.54593 0.147619 0.0
-1.53385 0.0732143 0.0
-1.53393 0.110714 0.0
-1.58522 0.704286 0.0
-1.58709 0.745 0.0
-1.58896 0.785714 0.0
-1.60695 0.830357 0.0
-1.60707 0.892857 0.0
-1.59993 1 0.0
-1.58454 0.965385 0.0
-1.57135 0.928571 0.0
-1.55209 0.241071 0.0
-1.5291 0.198214 0.0
-1.56936 0.570918 0.0
-1.54369 0.517857 0.0
-1.5464 0.380952 0.0
-1.54564 0.427721 0.0
-1.54488 0.47449 0.0
-1.55026 0.606122 0.0
-1.54222 0.677143 0.0
-1.52943 0.282857 0.0
-1.52143 0.33619 0.0
-1.49792 0 0.0
-1.49802 0.05 0.0
-1.49822 0.15 0.0
-1.49312 0.1 0.0
-1.5423 0.717143 0.0
-1.54419 0.767857 0.0
-1.54727 0.819048 0.0
-1.57122 0.861905 0.0
-1.53553 0.914286 0.0
-1.54992 1 0.0
-1.53563 0.964286 0.0
-1.49842 0.25 0.0
-1.48831 0.2 0.0
-1.5214 0.558929 0.0
-1.49891 0.5 0.0
-1.49871 0.4 0.0
-1.47631 0.45 0.0
-1.49911 0.6 0.0
-1.49921 0.65 0.0
-1.49931 0.7 0.0
-1.48111 0.35 0.0
-1.48351 0.3 0.0
-1.44771 0 0.0
-1.44782 0.05 0.0
-1.44804 0.15 0.0
-1.44793 0.1 0.0
-1.49941 0.75 0.0
-1.49951 0.8 0.0
-1.49981 0.95 0.0
-1.49961 0.85 0.0
-1.49971 0.9 0.0
-1.49991 1 0.0
-1.44826 0.25 0.0
-1.43815 0.2 0.0
-1.47151 0.55 0.0
-1.44881 0.5 0.0
-1.44859 0.4 0.0
-1.42619 0.45 0.0
-1.44913 0.65 0.0
-1.44902 0.6 0.0
-1.44935 0.75 0.0
-1.44924 0.7 0.0
-1.43972 0.35 0.0
-1.43336 0.3 0.0
-1.3975 0 0.0
-1.39762 0.05 0.0
-1.39786 0.15 0.0
-1.39274 0.1 0.0
-1.44957 0.85 0.0
-1.44946 0.8 0.0
-1.4523 0.95 0.0
-1.44968 0.9 0.0
-1.4499 1 0.0
-1.3981 0.25 0.0
-1.38798 0.2 0.0
-1.42141 0.55 0.0
-1.3987 0.5 0.0
-1.39834 0.35 0.0
-1.37845 0.4 0.0
-1.37607 0.45 0.0
-1.40784 0.65 0.0
-1.39894 0.6 0.0
-1.41185 0.75 0.0
-1.39918 0.7 0.0
-1.38322 0.3 0.0
-1.34729 0 0.0
-1.34492 0.05 0.0
-1.34018 0.15 0.0
-1.34255 0.1 0.0
-1.40707 0.85 0.0
-1.39941 0.8 0.0
-1.39977 0.95 0.0
-1.39965 0.9 0.0
-1.39989 1 0.0
-1.33781 0.2 0.0
-1.33544 0.25 0.0
-1.37131 0.55 0.0
-1.34859 0.5 0.0
-1.33833 0.4 0.0
-1.3307 0.35 0.0
-1.32595 0.45 0.0
-1.34885 0.6 0.0
-1.36655 0.65 0.0
-1.36179 0.75 0.0
-1.34911 0.7 0.0
-1.33307 0.3 0.0
-1.29708 0 0.0
-1.29722 0.05 0.0
-1.2975 0.15 0.0
-1.29236 0.1 0.0
-1.35703 0.85 0.0
-1.34937 0.8 0.0
-1.34988 1 0.0
-1.34962 0.9 0.0
-1.35226 0.95 0.0
-1.28528 0.25 0.0
-1.28764 0.2 0.0
-1.28931 0.35 0.0
-1.32121 0.55 0.0
-1.29848 0.5 0.0
-1.28709 0.45 0.0
-1.2982 0.4 0.0
-1.29876 0.6 0.0
-1.31647 0.65 0.0
-1.29918 0.75 0.0
-1.29904 0.7 0.0
-1.28292 0.3 0.0
-1.24687 0 0.0
-1.24702 0.05 0.0
-1.24717 0.1 0.0
-1.24732 0.15 0.0
-1.29946 0.85 0.0
-1.29932 0.8 0.0
-1.29987 1 0.0
-1.29974 0.95 0.0
-1.30462 0.9 0.0
-1.24762 0.25 0.0
-1.23747 0.2 0.0
-1.24792 0.35 0.0
-1.22807 0.4 0.0
-1.27111 0.55 0.0
-1.24837 0.5 0.0
-1.24822 0.45 0.0
-1.24867 0.6 0.0
-1.26639 0.65 0.0
-1.26167 0.75 0.0
-1.24897 0.7 0.0
-1.23277 0.3 0.0
-1.19667 0 0.0
-1.19683 0.05 0.0
-1.18964 0.15 0.0
-1.19198 0.1 0.0
-1.25695 0.85 0.0
-1.24927 0.8 0.0
-1.25223 0.95 0.0
-1.24987 1 0.0
-1.24957 0.9 0.0
-1.1873 0.2 0.0
-1.18496 0.25 0.0
-1.18028 0.35 0.0
-1.17794 0.4 0.0
-1.1981 0.45 0.0
-1.19842 0.55 0.0
-1.19826 0.5 0.0
-1.19858 0.6 0.0
-1.19874 0.65 0.0
-1.19906 0.75 0.0
-1.1989 0.7 0.0
-1.18262 0.3 0.0
-1.14646 0 0.0
-1.14663 0.05 0.0
-1.1418 0.1 0.0
-1.13713 0.2 0.0
-1.14697 0.15 0.0
-1.20691 0.85 0.0
-1.20926 0.8 0.0
-1.20221 0.95 0.0
-1.19986 1 0.0
-1.20456 0.9 0.0
-1.13997 0.3 0.0
-1.14731 0.25 0.0
-1.13781 0.4 0.0
-1.13014 0.35 0.0
-1.12548 0.45 0.0
-1.14815 0.5 0.0
-1.15962 0.55 0.0
-1.14849 0.6 0.0
-1.15745 0.65 0.0
-1.16155 0.75 0.0
-1.14917 0.8 0.0
-1.14883 0.7 0.0
-1.09625 0 0.0
-1.09661 0.1 0.0
-1.09393 0.05 0.0
-1.09697 0.2 0.0
-1.08929 0.15 0.0
-1.15687 0.85 0.0
-1.14985 1 0.0
-1.15219 0.95 0.0
-1.14951 0.9 0.0
-1.09733 0.3 0.0
-1.08465 0.25 0.0
-1.09769 0.4 0.0
-1.08 0.35 0.0
-1.08661 0.45 0.0
-1.09804 0.5 0.0
-1.12082 0.55 0.0
-1.10916 0.8 0.0
-1.10629 0.7 0.0
-1.0984 0.6 0.0
-1.11616 0.65 0.0
-1.11149 0.75 0.0
-1.04604 0 0.0
-1.04623 0.05 0.0
-1.04642 0.1 0.0
-1.0468 0.2 0.0
-1.03911 0.15 0.0
-1.09948 0.9 0.0
-1.0993 0.85 0.0
-1.09984 1 0.0
-1.09966 0.95 0.0
-1.04718 0.3 0.0
-1.03449 0.25 0.0
-1.04756 0.4 0.0
-1.02986 0.35 0.0
-1.04775 0.45 0.0
-1.04794 0.5 0.0
-1.04813 0.55 0.0
-1.05911 0.8 0.0
-1.04831 0.6 0.0
-1.06376 0.7 0.0
-1.0485 0.65 0.0
-1.04888 0.75 0.0
-0.995833 0 0.0
-0.991231 0.1 0.0
-0.996033 0.05 0.0
-0.986629 0.2 0.0
-0.98893 0.15 0.0
-1.05447 0.9 0.0
-1.04926 0.85 0.0
-1.04983 1 0.0
-1.04964 0.95 0.0
-0.984328 0.25 0.0
-0.99703 0.3 0.0
-0.997429 0.4 0.0
-0.997628 0.45 0.0
-0.979726 0.35 0.0
-0.997827 0.5 0.0
-0.998027 0.55 0.0
-0.998226 0.6 0.0
-0.961416 0.475 0.0
-1.00907 0.8 0.0
-0.998426 0.65 0.0
-0.998625 0.7 0.0
-1.01138 0.75 0.0
-0.945625 0 0.0
-0.946044 0.1 0.0
-0.943334 0.05 0.0
-0.946463 0.2 0.0
-0.938752 0.15 0.0
-1.00444 0.9 0.0
-1.00675 0.85 0.0
-0.999821 1 0.0
-1.00213 0.95 0.0
-0.93417 0.25 0.0
-0.946881 0.3 0.0
-0.9473 0.4 0.0
-0.929588 0.35 0.0
-0.925005 0.45 0.0
-0.960371 0.525 0.0
-0.959325 0.575 0.0
-0.958279 0.625 0.0
-0.922714 0.5 0.0
-0.959017 0.8 0.0
-0.957233 0.675 0.0
-0.952999 0.7125 0.0
-0.948766 0.75 0.0
-0.895417 0 0.0
-0.895855 0.1 0.0
-0.893136 0.05 0.0
-0.896294 0.2 0.0
-0.888573 0.15 0.0
-0.949184 0.85 0.0
-0.954415 0.9 0.0
-0.949812 1 0.0
-0.949603 0.95 0.0
-0.884011 0.25 0.0
-0.896733 0.3 0.0
-0.874887 0.45 0.0
-0.879449 0.35 0.0
-0.897171 0.4 0.0
-0.920423 0.55 0.0
-0.918132 0.6 0.0
-0.915841 0.65 0.0
-0.872606 0.5 0.0
-0.908968 0.8 0.0
-0.91355 0.7 0.0
-0.898707 0.75 0.0
-0.845208 0 0.0
-0.845438 0.05 0.0
-0.845667 0.1 0.0
-0.845896 0.15 0.0
-0.833853 0.25 0.0
-0.846126 0.2 0.0
-0.899146 0.85 0.0
-0.904386 0.9 0.0
-0.899584 0.95 0.0
-0.899804 1 0.0
-0.838062 0.35 0.0
[...]
POINT_DATA 10839
VECTORS Velocity float
0.21 0 0.0
0.24 0 0.0
0.2275 0 0.0
0.2475 0 0.0
0.25 0 0.0
0.2475 0 0.0
0 0 0.0
0.0475 0 0.0
0.1275 0 0.0
0.09 0 0.0
0.09 0 0.0
0.1275 0 0.0
0.1875 0 0.0
0.16 0 0.0
0.195557 -2.28793e-05 0.0
0.242841 -3.0998e-05 0.0
0.215776 -2.71566e-05 0.0
0.231406 -3.05462e-05 0.0
0.248725 -3.295e-05 0.0
0.24 0 0.0
0.24284 -3.08409e-05 0.0
0.24852 -3.17038e-05 0.0
0 0 0.0
0.0622239 -4.09328e-06 0.0
0.0322269 -2.70458e-06 0.0
0.16 0 0.0
0.1875 0 0.0
0.21 0 0.0
0.2275 0 0.0
0.193592 -2.55475e-05 0.0
0.138887 -1.43337e-05 0.0
0 0 0.0
0.0475 0 0.0
0.0998416 -1.00444e-05 0.0
0.0622206 -4.14383e-06 0.0
0.0998461 -1.05033e-05 0.0
0.138891 -1.45017e-05 0.0
0.17438 -3.60429e-05 0.0
0.201605 -4.91774e-05 0.0
0.235787 -5.97819e-05 0.0
0.244085 -6.24606e-05 0.0
0.223601 -8.00495e-05 0.0
0.249751 -6.51393e-05 0.0
0.249044 -7.2462e-05 0.0
0.231404 -3.09061e-05 0.0
0.244081 -6.15435e-05 0.0
0 0 0.0
0.0361076 -5.17368e-06 0.0
0.0736121 -1.43995e-05 0.0
0.062248 -1.57124e-05 0.0
0.174371 -3.53435e-05 0.0
0.220162 -4.88344e-05 0.0
0.201595 -4.89658e-05 0.0
0.115549 -2.1408e-05 0.0
0.146677 -3.29327e-05 0.0
0 0 0.0
0.0360876 -3.5205e-06 0.0
0.0693664 -1.1314e-05 0.0
0.0899843 -2.22311e-05 0.0
0.10939 -3.00115e-05 0.0
0.146691 -3.24295e-05 0.0
0.178901 -6.01676e-05 0.0
0.206292 -7.83907e-05 0.0
0.214499 -0.000105277 0.0
0.238526 -9.33531e-05 0.0
0.247349 -9.70354e-05 0.0
0.229606 -0.000118619 0.0
0.226324 -8.35621e-05 0.0
0.249983 -9.73692e-05 0.0
0.246427 -9.46479e-05 0.0
0.23668 -8.91074e-05 0.0
0 0 0.0
0.0322495 -5.81473e-06 0.0
0.0956949 -3.39505e-05 0.0
0.0694265 -2.55388e-05 0.0
0.178877 -5.88847e-05 0.0
0.20627 -7.84375e-05 0.0
0.127478 -4.55757e-05 0.0
0.165875 -7.42347e-05 0.0
0.152327 -5.34724e-05 0.0
0 0 0.0
0.03608 -5.02448e-06 0.0
0.062197 -1.55662e-05 0.0
0.0956319 -3.45314e-05 0.0
0.127523 -4.62169e-05 0.0
0.156659 -6.69116e-05 0.0
0.115598 -5.28793e-05 0.0
0.193624 -0.000109685 0.0
0.218139 -0.000138395 0.0
0.240939 -0.000126163 0.0
0.247737 -0.000130624 0.0
0.25 -0.000131851 0.0
0.234396 -0.000159781 0.0
0.229578 -0.000116187 0.0
0.247728 -0.000129989 0.0
0.24092 -0.000125307 0.0
0 0 0.0
0.0344851 -8.01046e-06 0.0
0.103117 -5.18281e-05 0.0
0.0622988 -2.58224e-05 0.0
0.189729 -9.26622e-05 0.0
0.212991 -0.000128732 0.0
0.170537 -0.000100065 0.0
0.144333 -7.45505e-05 0.0
0 0 0.0
0.0398994 -8.57935e-06 0.0
0.0997899 -4.70439e-05 0.0
0.0693241 -2.51249e-05 0.0
0.170621 -0.000101117 0.0
0.144418 -7.6758e-05 0.0
0.124372 -7.7608e-05 0.0
0.183646 -0.000127472 0.0
0.204128 -0.000152336 0.0
0.222035 -0.000178956 0.0
0.249109 -0.000172228 0.0
0.244025 -0.000168308 0.0
0.249119 -0.000172593 0.0
0.238548 -0.000202656 0.0
0.234354 -0.000157587 0.0
0.244883 -0.00018105 0.0
0 0 0.0
0.0322886 -8.46685e-06 0.0
0.0940683 -5.43597e-05 0.0
0.0652106 -3.25656e-05 0.0
0.1967 -0.000137654 0.0
0.217875 -0.000168676 0.0
0.177444 -0.000139298 0.0
0.148695 -9.78572e-05 0.0
0.120334 -6.88897e-05 0.0
0 0 0.0
0.0343928 -8.12909e-06 0.0
0.0716492 -3.26683e-05 0.0
0.152419 -0.000110702 0.0
0.127607 -9.6078e-05 0.0
0.187573 -0.000157624 0.0
0.211946 -0.000195928 0.0
0.248605 -0.000212795 0.0
0.22568 -0.00022156 0.0
0.249781 -0.000214852 0.0
0.246472 -0.000211692 0.0
0.24206 -0.000247422 0.0
0.238492 -0.000200286 0.0
0 0 0.0
0.0338692 -1.05948e-05 0.0
0.0999835 -7.23234e-05 0.0
0.0695346 -4.3256e-05 0.0
0.206266 -0.000180778 0.0
0.222409 -0.000210406 0.0
0.189984 -0.000187046 0.0
0.168263 -0.000151618 0.0
0.143013 -0.000116849 0.0
0.124202 -8.6757e-05 0.0
0.0970914 -5.86036e-05 0.0
0 0 0.0
0.0360243 -1.02937e-05 0.0
0.0673226 -3.48823e-05 0.0
0.130324 -0.000115825 0.0
0.168474 -0.000154858 0.0
0.199465 -0.000201757 0.0
0.218372 -0.000236349 0.0
0.241994 -0.000245563 0.0
0.249999 -0.000257491 0.0
0.247989 -0.00025385 0.0
0.229074 -0.000266154 0.0
0.244932 -0.000293638 0.0
0.248738 -0.000270518 0.0
0.234449 -0.000250674 0.0
0 0 0.0
0.0362251 -1.36263e-05 0.0
0.122645 -0.000118398 0.0
0.0712149 -5.09706e-05 0.0
0.208358 -0.000219633 0.0
0.225133 -0.000260719 0.0
0.19806 -0.000227061 0.0
0.177738 -0.000188667 0.0
0.146539 -0.00013992 0.0
0.119145 -9.84126e-05 0.0
0.0970612 -6.62355e-05 0.0
0 0 0.0
0.0349439 -1.14843e-05 0.0
0.0672882 -3.91475e-05 0.0
0.152289 -0.000161582 0.0
0.178007 -0.000197386 0.0
0.210107 -0.000249342 0.0
0.24486 -0.000290403 0.0
0.249419 -0.000299356 0.0
0.232216 -0.000312586 0.0
0.24419 -0.000333759 0.0
0.249985 -0.000353099 0.0
0.249128 -0.000315569 0.0
0.235918 -0.000298329 0.0
0.21295 -0.000304561 0.0
0 0 0.0
0.0371512 -1.59436e-05 0.0
0.141094 -0.000164582 0.0
0.0999376 -9.92742e-05 0.0
0.0665817 -4.93162e-05 0.0
0.213639 -0.000265342 0.0
0.186623 -0.000230804 0.0
0.165102 -0.000188572 0.0
0.122258 -0.000117458 0.0
0.0928808 -7.24232e-05 0.0
0 0 0.0
0.0349161 -1.27935e-05 0.0
0.0642409 -4.15854e-05 0.0
0.165582 -0.00020648 0.0
0.186954 -0.000242772 0.0
0.158105 -0.000215829 0.0
0.247091 -0.000338214 0.0
0.248689 -0.000387861 0.0
0.23104 -0.000351458 0.0
0.240515 -0.000373619 0.0
0.248749 -0.000391102 0.0
0.240207 -0.000341958 0.0
0.229265 -0.000333997 0.0
0.199166 -0.000298721 0.0
0.218618 -0.000356806 0.0
0 0 0.0
0.0346366 -1.53758e-05 0.0
0.126146 -0.000159048 0.0
0.068156 -5.5037e-05 0.0
0.0987943 -0.000107023 0.0
0.2081 -0.000300495 0.0
0.18978 -0.000262615 0.0
0.168149 -0.000219012 0.0
0.140642 -0.000160132 0.0
0.0954292 -8.60243e-05 0.0
0 0 0.0
0.033262 -1.31419e-05 0.0
0.0660749 -4.9786e-05 0.0
0.183205 -0.000282372 0.0
0.159241 -0.000241594 0.0
0.244899 -0.000397115 0.0
0.249653 -0.000438352 0.0
0.235946 -0.000411243 0.0
0.244844 -0.000431784 0.0
0.249367 -0.00044085 0.0
0.238626 -0.000399153 0.0
0.218438 -0.000358359 0.0
0.203085 -0.00034972 0.0
0.223352 -0.000409044 0.0
0 0 0.0
0.0477852 -2.98788e-05 0.0
0.127893 -0.000180144 0.0
0.0903937 -9.88553e-05 0.0
0.202632 -0.000320554 0.0
0.177996 -0.000265174 0.0
0.147919 -0.00020145 0.0
0.118747 -0.00013378 0.0
0.078053 -7.3687e-05 0.0
0 0 0.0
0.0342426 -1.57394e-05 0.0
0.18781 -0.000336014 0.0
0.160376 -0.000269113 0.0
0.246449 -0.000451778 0.0
0.249987 -0.000491862 0.0
0.240119 -0.000475049 0.0
0.247556 -0.000518493 0.0
0.239864 -0.000454104 0.0
0.227308 -0.000417736 0.0
0.209756 -0.00037098 0.0
0.227701 -0.000466109 0.0
0.210267 -0.000413062 0.0
0 0 0.0
0.0478406 -3.1794e-05 0.0
0.127984 -0.000199062 0.0
0.0904689 -0.000105914 0.0
0.187206 -0.000315731 0.0
0.15966 -0.000250933 0.0
0.0472159 -3.19679e-05 0.0
0.127126 -0.000177663 0.0
0.0896234 -0.000101749 0.0
0 0 0.0
0.187884 -0.000380597 0.0
0.160465 -0.00030208 0.0
0.247413 -0.000510179 0.0
0.249979 -0.000553026 0.0
0.240144 -0.000538713 0.0
0.247563 -0.000584829 0.0
0.227265 -0.000463869 0.0
0.23983 -0.000505846 0.0
0.187143 -0.000350372 0.0
0.209702 -0.000411351 0.0
0.227736 -0.000515659 0.0
0.210328 -0.000469707 0.0
0 0 0.0
0.0478987 -3.24255e-05 0.0
0.128089 -0.00021899 0.0
0.0905705 -0.00011375 0.0
0.127045 -0.000201149 0.0
0.159589 -0.000280198 0.0
0.0471578 -3.71355e-05 0.0
0.089542 -0.000116219 0.0
0 0 0.0
0.18797 -0.000430806 0.0
0.160569 -0.000339273 0.0
0.247388 -0.000568309 0.0
0.249967 -0.000618363 0.0
0.227773 -0.000572005 0.0
0.240179 -0.000639091 0.0
0.247567 -0.000658109 0.0
0.227222 -0.000500696 0.0
0.239791 -0.000558913 0.0
0.187092 -0.000375385 0.0
0.209642 -0.000451043 0.0
0.210398 -0.000534204 0.0
0 0 0.0
0.0479634 -3.28274e-05 0.0
0.12823 -0.000244996 0.0
0.0906745 -0.000120623 0.0
0.126973 -0.000221743 0.0
0.159511 -0.000309851 0.0
0.0470838 -4.39933e-05 0.0
0.0894514 -0.000133228 0.0
0 0 0.0
0.16069 -0.000382421 0.0
0.188097 -0.00050477 0.0
0.247357 -0.000629271 0.0
0.249949 -0.000688827 0.0
0.240199 -0.000706817 0.0
0.227843 -0.000679272 0.0
0.247567 -0.000738171 0.0
0.239743 -0.000611928 0.0
0.227177 -0.00053803 0.0
0.187021 -0.000408207 0.0
0.209576 -0.000488222 0.0
0.210477 -0.000611083 0.0
0 0 0.0
0.0480251 -3.34969e-05 0.0
0.128353 -0.000269944 0.0
0.0907911 -0.000130139 0.0
0.126883 -0.000247735 0.0
0.159431 -0.000339254 0.0
0 0 0.0
0.0893502 -0.000153158 0.0
0.0470052 -5.14405e-05 0.0
0.188217 -0.000582666 0.0
0.160833 -0.000436892 0.0
0.227889 -0.000758804 0.0
0.247317 -0.000693273 0.0
0.249922 -0.000765525 0.0
0.247561 -0.000807965 0.0
0.240218 -0.000781303 0.0
0.239684 -0.000664627 0.0
0.227113 -0.000580918 0.0
0.186927 -0.000443293 0.0
0.209503 -0.000521295 0.0
0.210566 -0.000701547 0.0
0 0 0.0
0.0480923 -3.5861e-05 0.0
0.0909115 -0.000143553 0.0
0.12852 -0.000309216 0.0
0.126775 -0.000276429 0.0
0.159349 -0.000365152 0.0
0 0 0.0
0.0469065 -6.02076e-05 0.0
0.0892526 -0.000170701 0.0
0.188322 -0.000651827 0.0
0.161003 -0.000509043 0.0
0.227933 -0.000851016 0.0
0.240241 -0.000935892 0.0
0.247265 -0.000759945 0.0
0.249882 -0.000848098 0.0
0.247551 -0.000884258 0.0
0.239611 -0.000715374 0.0
0.227038 -0.000619093 0.0
0.186867 -0.000458434 0.0
0.209423 -0.000545609 0.0
0.210665 -0.000813599 0.0
0 0 0.0
0.0481701 -4.08695e-05 0.0
0.128752 -0.000379572 0.0
0.0910858 -0.000174887 0.0
0.126694 -0.000293396 0.0
0.159268 -0.00038288 0.0
0.0468048 -6.75523e-05 0.0
0 0 0.0
0.0891256 -0.000189355 0.0
0.161201 -0.00060676 0.0
0.188516 -0.000799209 0.0
0.22801 -0.00103419 0.0
0.240247 -0.00107201 0.0
0.247521 -0.000997319 0.0
0.247158 -0.000858325 0.0
0.249824 -0.000941127 0.0
0.23952 -0.0007629 0.0
0.226916 -0.000657069 0.0
0.186766 -0.000465441 0.0
0.209332 -0.00055695 0.0
0.210772 -0.000953686 0.0
0 0 0.0
0.0482639 -5.17978e-05 0.0
0.0912817 -0.00021925 0.0
0.16143 -0.000736155 0.0
0.128954 -0.00045508 0.0
0.126601 -0.000301738 0.0
0.159203 -0.000386079 0.0
0.046688 -7.36193e-05 0.0
0 0 0.0
0.0890159 -0.000199577 0.0
0.210869 -0.00109776 0.0
0.188649 -0.000917387 0.0
0.24024 -0.00119803 0.0
0.228055 -0.00121213 0.0
0.247444 -0.00118481 0.0
0.24974 -0.00104125 0.0
0.247075 -0.000913115 0.0
0.239403 -0.000803465 0.0
0.22682 -0.000669752 0.0
0.186698 -0.000454217 0.0
0.159112 -0.00036382 0.0
0.209228 -0.00054947 0.0
0 0 0.0
0.0915069 -0.00028364 0.0
0.0483972 -6.88084e-05 0.0
0.16164 -0.000877275 0.0
0.129283 -0.000603964 0.0
0.126513 -0.000289333 0.0
0 0 0.0
0.046567 -7.6589e-05 0.0
0.0888905 -0.000196725 0.0
0.210969 -0.00126934 0.0
0.188893 -0.00117168 0.0
0.240218 -0.00133831 0.0
0.228092 -0.00142454 0.0
0.247368 -0.00130835 0.0
0.24962 -0.00115341 0.0
0.246977 -0.000970276 0.0
0.15905 -0.000322409 0.0
0.209123 -0.000524153 0.0
0.239251 -0.000835731 0.0
0.226707 -0.000671671 0.0
0.186601 -0.000413283 0.0
0 0 0.0
0.0485603 -9.2645e-05 0.0
0.0918144 -0.000382769 0.0
0.161934 -0.00109802 0.0
0.129633 -0.000783914 0.0
0.0887969 -0.000171539 0.0
0.126427 -0.000239515 0.0
0 0 0.0
0.0464473 -7.14344e-05 0.0
0.21108 -0.00152039 0.0
0.189106 -0.00143542 0.0
0.240163 -0.00154696 0.0
0.228106 -0.00167838 0.0
0.247278 -0.00144425 0.0
0.249464 -0.00127761 0.0
0.246725 -0.00107206 0.0
0.158978 -0.000232788 0.0
0.239059 -0.000858771 0.0
0.209 -0.000478184 0.0
0.226475 -0.000643779 0.0
0.186465 -0.000310416 0.0
0 0 0.0
0.0922692 -0.0005281 0.0
0.048799 -0.00013643 0.0
0.162339 -0.00144731 0.0
0.13006 -0.0010193 0.0
0.0887413 -0.000124621 0.0
0.126376 -0.000158629 0.0
0 0 0.0
0.0463474 -6.46115e-05 0.0
0.18933 -0.00176307 0.0
0.211187 -0.00182756 0.0
0.240071 -0.00179618 0.0
0.247114 -0.00163863 0.0
0.228091 -0.00197981 0.0
0.249247 -0.00141379 0.0
0.246477 -0.00114911 0.0
0.23881 -0.000872118 0.0
0.248612 -0.00166893 0.0
0.158901 -9.60439e-05 0.0
0.22624 -0.000597492 0.0
0.20876 -0.000360153 0.0
0.186359 -0.000214777 0.0
0 0 0.0
0.092747 -0.000682334 0.0
0.0491325 -0.000185756 0.0
0.162641 -0.00173646 0.0
0.130577 -0.00131049 0.0
0.0887272 -5.0674e-05 0.0
0.126351 -5.34313e-05 0.0
0 0 0.0
0.0462891 -4.67152e-05 0.0
0.18956 -0.00215738 0.0
0.211273 -0.00219619 0.0
0.23992 -0.00207682 0.0
0.228037 -0.00233797 0.0
0.246757 -0.00197674 0.0
0.248255 -0.00137192 0.0
0.243015 -0.00104025 0.0
0.232898 -0.000703647 0.0
0.248793 -0.00165 0.0
0.158831 9.51239e-05 0.0
0.217895 -0.000388414 0.0
0.203415 -0.000174585 0.0
0.186161 3.67572e-06 0.0
0 0 0.0
0.0934128 -0.000888316 0.0
0.0495591 -0.000245615 0.0
0.163068 -0.0021603 0.0
0.131201 -0.00165784 0.0
0.126378 0.000143101 0.0
0.0887862 5.23796e-05 0.0
0 0 0.0
0.0462841 -1.43628e-05 0.0
0.189794 -0.00262347 0.0
0.211335 -0.00262875 0.0
0.246419 -0.0022412 0.0
0.22793 -0.00274759 0.0
0.239718 -0.0024092 0.0
0.245956 -0.00127293 0.0
0.238263 -0.000866808 0.0
0.225717 -0.000468365 0.0
0.248378 -0.0018297 0.0
0.158754 0.000334301 0.0
0.208306 -0.000105903 0.0
0.185947 0.000230468 0.0
0 0 0.0
0.0500853 -0.000313118 0.0
0.0942298 -0.00112192 0.0
0.131839 -0.00199486 0.0
0.190031 -0.00315573 0.0
0.163546 -0.00264668 0.0
0.126454 0.000360791 0.0
0.0889293 0.000180308 0.0
0.0463322 2.31498e-05 0.0
0 0 0.0
0.227799 -0.0031326 0.0
0.211362 -0.00312894 0.0
0.246092 -0.00247444 0.0
0.239429 -0.00278753 0.0
0.225292 -0.000356451 0.0
0.245505 -0.00135454 0.0
0.237806 -0.000851259 0.0
0.247868 -0.00202971 0.0
0.1857 0.000505017 0.0
0.158679 0.000687071 0.0
0.207836 0.000155298 0.0
0 0 0.0
0.0507829 -0.000396298 0.0
0.0953546 -0.00139758 0.0
0.132721 -0.00243622 0.0
0.190207 -0.00360901 0.0
0.164218 -0.00331874 0.0
0.126607 0.000612838 0.0
0.0892166 0.000350366 0.0
0.0464772 7.02768e-05 0.0
0 0 0.0
0.126854 0.000895323 0.0
0.22762 -0.00354471 0.0
0.211342 -0.00387975 0.0
0.238892 -0.00339956 0.0
0.245707 -0.00272543 0.0
0.224564 -0.000172244 0.0
0.237245 -0.000826005 0.0
0.244945 -0.00144667 0.0
0.247236 -0.00225707 0.0
0.1854 0.000819393 0.0
0.158617 0.00101475 0.0
0.207363 0.000388894 0.0
0 0 0.0
0.051623 -0.000475017 0.0
0.0965954 -0.00167714 0.0
0.133753 -0.00290634 0.0
0.190453 -0.00424917 0.0
0.16486 -0.00392937 0.0
0.0466898 0.000115107 0.0
0.089596 0.000508539 0.0
0 0 0.0
0.127121 0.00114459 0.0
0.227332 -0.00411076 0.0
0.211269 -0.0045251 0.0
0.238378 -0.00389028 0.0
0.245102 -0.00309265 0.0
0.224005 -5.72155e-05 0.0
0.236569 -0.000800481 0.0
0.246482 -0.0025092 0.0
0.243929 -0.00160171 0.0
0.185135 0.00107042 0.0
0.158577 0.001359 0.0
0.206809 0.000648021 0.0
0 0 0.0
0.0526361 -0.000569404 0.0
0.0980506 -0.00196872 0.0
0.135162 -0.00348089 0.0
0.190779 -0.00513065 0.0
0.211159 -0.00522956 0.0
0.165606 -0.00458088 0.0
0.0470019 0.000164571 0.0
0.0901057 0.000670004 0.0
0 0 0.0
0.127538 0.0014293 0.0
0.226824 -0.00495203 0.0
0.237898 -0.00432466 0.0
0.244382 -0.00349665 0.0
0.245822 -0.00272516 0.0
0.223376 7.30677e-05 0.0
0.235749 -0.000790469 0.0
0.243046 -0.00172813 0.0
0.158575 0.00171266 0.0
0.184748 0.00141161 0.0
0.206148 0.000913611 0.0
0 0 0.0
0.0538541 -0.00067537 0.0
0.0997388 -0.00227116 0.0
0.136601 -0.00399942 0.0
0.190984 -0.005696 0.0
0.211001 -0.00597694 0.0
0.166466 -0.00526324 0.0
0.0474112 0.000206025 0.0
0.0907558 0.00082949 0.0
0 0 0.0
0.158584 0.0019857 0.0
0.0915311 0.000980417 0.0
0.128132 0.00172985 0.0
0.226331 -0.00566074 0.0
0.237335 -0.00477958 0.0
0.243101 -0.00415717 0.0
0.245086 -0.00295285 0.0
0.242274 -0.00185054 0.0
0.222493 0.000225579 0.0
0.234385 -0.000784779 0.0
0.184201 0.00183971 0.0
0.205507 0.00113337 0.0
0.225877 -0.00626487 0.0
0 0 0.0
0.0551946 -0.000766627 0.0
0.138266 -0.00452342 0.0
0.101643 -0.00257689 0.0
0.210815 -0.00678563 0.0
0.19139 -0.00668315 0.0
0.167449 -0.00596328 0.0
0.0479507 0.00025901 0.0
0 0 0.0
0.183829 0.00207085 0.0
0.15865 0.00229989 0.0
0.12879 0.00194227 0.0
0.0484648 0.000297343 0.0
0.0924194 0.00109401 0.0
0.236542 -0.00540078 0.0
0.242284 -0.00455528 0.0
0.243964 -0.00329632 0.0
0.243023 -0.00358731 0.0
0.241396 -0.00197948 0.0
0.221461 0.000353089 0.0
0.233197 -0.000811146 0.0
0.204794 0.00135202 0.0
0.225349 -0.0069083 0.0
0.0566067 -0.000857511 0.0
0 0 0.0
0.139823 -0.00496755 0.0
0.103764 -0.00286826 0.0
0.210602 -0.00763334 0.0
0.191664 -0.0073002 0.0
0.168589 -0.00668306 0.0
0 0 0.0
0.183341 0.00236568 0.0
0.158788 0.00260028 0.0
0.129401 0.00209519 0.0
0.0490717 0.000312643 0.0
0.093372 0.00117163 0.0
0.235214 -0.00636902 0.0
0.241398 -0.00497328 0.0
0.241983 -0.00389244 0.0
0.239515 -0.00227342 0.0
0.220306 0.000469073 0.0
0.231883 -0.000861829 0.0
0.203577 0.00163705 0.0
0.224657 -0.00774487 0.0
0 0 0.0
0.0582915 -0.000941152 0.0
0.141867 -0.00548621 0.0
0.105884 -0.00312992 0.0
0.169877 -0.00740113 0.0
0.210374 -0.00853592 0.0
0.192227 -0.0083561 0.0
0 0 0.0
0 0 0.0
0.182818 0.00258669 0.0
0.158998 0.00276999 0.0
0.130228 0.00219899 0.0
0.0943997 0.00120051 0.0
0.0497197 0.000314551 0.0
0.234117 -0.00712533 0.0
0.240102 -0.0055715 0.0
0.230696 -0.00093091 0.0
0.240462 -0.00434927 0.0
0.237985 -0.00254009 0.0
0.219002 0.00054112 0.0
0.202528 0.00180694 0.0
0.233148 -0.00778394 0.0
0.223872 -0.0086371 0.0
0.0601602 -0.00103604 0.0
0.108439 -0.00341437 0.0
0.144141 -0.00601082 0.0
0.171067 -0.0079963 0.0
0.210157 -0.00947379 0.0
0.192626 -0.00902814 0.0
0 0 0.0
0 0 0.0
0.159185 0.00284526 0.0
0.182191 0.00277008 0.0
0.0953338 0.00118602 0.0
0.131237 0.00221695 0.0
0.0503354 0.000306112 0.0
0.23797 -0.00651347 0.0
0.23875 -0.00486596 0.0
0.201424 0.00191383 0.0
0.229414 -0.00101874 0.0
0.2367 -0.0027807 0.0
0.217043 0.000571477 0.0
0.23211 -0.00845646 0.0
0.222736 -0.00993082 0.0
0.209943 -0.0104636 0.0
0.0622333 -0.00115529 0.0
0.111215 -0.00370917 0.0
0.14703 -0.00661089 0.0
0.172692 -0.00873128 0.0
0.193435 -0.0101646 0.0
0 0 0.0
0 0 0.0
0.159576 0.00282696 0.0
0.181719 0.00278858 0.0
0.096483 0.00109617 0.0
0.13218 0.00212608 0.0
0.05099 0.00028693 0.0
0.235295 -0.00305012 0.0
0.236872 -0.0054292 0.0
0.236285 -0.00726315 0.0
0.200269 0.0019476 0.0
0.227669 -0.00118755 0.0
0.215435 0.000509766 0.0
0.181303 0.00268572 0.0
0.230097 -0.00975125 0.0
0 0 0.0
0.221795 -0.0109798 0.0
0.194234 -0.0111189 0.0
0.209757 -0.0114968 0.0
0.064299 -0.00124689 0.0
0.149424 -0.00707104 0.0
0.11452 -0.00406399 0.0
0.174923 -0.00966416 0.0
0 0 0.0
0 0 0.0
0 0 0.0
0 0 0.0
0 0 0.0
0.0515201 0.000246709 0.0
0.133155 0.0019212 0.0
0.159995 0.00265691 0.0
0.0973536 0.000972787 0.0
0.233325 -0.00343249 0.0
0.234807 -0.00606501 0.0
0.234454 -0.00807523 0.0
0.214033 0.000416529 0.0
0.199076 0.00187064 0.0
0.224946 -0.00151775 0.0
0.198072 0.00171002 0.0
0.181017 0.00251866 0.0
0.228499 -0.0107754 0.0
0.220812 -0.0120695 0.0
0 0 0.0
5.24741e-05 -3.81008e-06 0.0
0 0 0.0
-0.000579007 0.00457031 0.0
0.20963 -0.0125869 0.0
0.194932 -0.0118506 0.0
0.0667663 -0.00137464 0.0
0.152384 -0.00763666 0.0
0.117762 -0.00442474 0.0
0.177041 -0.0104876 0.0
0 0 0.0
0 0 0.0
0 0 0.0
-0.000479226 0.00291591 0.0
-0.000151805 0.000183472 0.0
-0.000261888 0.000242184 0.0
0 0 0.0
0.0519413 0.000180683 0.0
0.133928 0.00167363 0.0
0.16045 0.00234458 0.0
0.0982692 0.000762159 0.0
0.231186 -0.00389568 0.0
0.23256 -0.00676645 0.0
0.232454 -0.00894715 0.0
0.212592 0.000250299 0.0
0.223267 -0.00178942 0.0
0.197079 0.00145499 0.0
0.180629 0.00202769 0.0
0.2268 -0.0118498 0.0
0.221962 -0.0128637 0.0
0.21515 -0.0134239 0.0
0 0 0.0
-0.000162276 0.000130821 0.0
0 0 0.0
0 0 0.0
-0.0019527 0.00926589 0.0
-0.00210319 0.00673365 0.0
0.20646 -0.0134947 0.0
0.195969 -0.0128871 0.0
0.120884 -0.00479957 0.0
0.0692193 -0.00153416 0.0
0.155579 -0.00828084 0.0
0.179318 -0.0113714 0.0
0 0 0.0
-0.00103078 0.00198674 0.0
-0.00161638 0.00407759 0.0
-0.000900948 0.00109799 0.0
-0.00114097 0.000840906 0.0
0 0 0.0
0.0522606 0.000107946 0.0
0.134777 0.00127503 0.0
0.160927 0.00189009 0.0
0.0989434 0.000509414 0.0
0.228863 -0.00442408 0.0
0.230143 -0.00753737 0.0
0.230294 -0.00988617 0.0
0.210115 -0.000197144 0.0
0.221499 -0.00210473 0.0
0.195959 0.000976828 0.0
0.161448 0.00125851 0.0
0.180433 0.00142024 0.0
0.225365 -0.0127411 0.0
0.219112 -0.0140156 0.0
0.20951 -0.0145965 0.0
0 0 0.0
-0.00103634 0.000370443 0.0
0 0 0.0
0 0 0.0
0 0 0.0
0 0 0.0
-0.00405245 0.00704141 0.0
-0.000465944 0.00741475 0.0
-0.00185221 0.0113116 0.0
-0.00447467 0.0144456 0.0
-0.00412001 0.010645 0.0
0 0 0.0
4.34589e-05 0.0091173 0.0
0.197426 -0.0143119 0.0
0.18131 -0.0121725 0.0
0 0 0.0
0.072236 -0.00177769 0.0
0.124622 -0.00530294 0.0
0.159556 -0.00923878 0.0
0 0 0.0
0 0 0.0
-0.00284582 0.00396831 0.0
-0.00261028 0.00241988 0.0
-0.00284538 0.00152203 0.0
0 0 0.0
0.0524127 1.64437e-05 0.0
0.135589 0.000689548 0.0
0.0993735 0.000213871 0.0
0.161759 0.000674882 0.0