# vtk DataFile Version 3.0
Mesh NS-CD Problem
ASCII
DATASET UNSTRUCTURED_GRID
POINTS 10839 float
-2 0.3 0.0
-2 0.4 0.0
-2 0.35 0.0
-2 0.45 0.0
-2 0.5 0.0
-2 0.55 0.0
-2 0 0.0
-2 0.05 0.0
-2 0.85 0.0
-2 0.9 0.0
-2 0.1 0.0
-2 0.15 0.0
-2 0.25 0.0
-2 0.2 0.0
-1.96653 0.266667 0.0
-1.96524 0.415385 0.0
-1.96485 0.315 0.0
-1.96348 0.363636 0.0
-1.96414 0.464286 0.0
-2 0.6 0.0
-1.96538 0.584615 0.0
-1.96538 0.538462 0.0
-1.94979 0 0.0
-1.96653 0.0666666 0.0
-1.93306 0.0333333 0.0
-2 0.8 0.0
-2 0.75 0.0
-2 0.7 0.0
-2 0.65 0.0
-1.96249 0.7375 0.0
-1.96666 0.833333 0.0
-2 1 0.0
-2 0.95 0.0
-1.96249 0.8875 0.0
-1.96666 0.933333 0.0
-1.96234 0.1125 0.0
-1.96653 0.166667 0.0
-1.93724 0.225 0.0
-1.92971 0.28 0.0
-1.93048 0.380769 0.0
-1.93048 0.423077 0.0
-1.89958 0.3375 0.0
-1.9292 0.484203 0.0
-1.92117 0.530907 0.0
-1.96363 0.636364 0.0
-1.93076 0.576923 0.0
-1.89958 0 0.0
-1.88703 0.0375 0.0
-1.90963 0.08 0.0
-1.86611 0.0666666 0.0
-1.93749 0.775 0.0
-1.93635 0.672727 0.0
-1.92999 0.72 0.0
-1.93332 0.866667 0.0
-1.92856 0.821429 0.0
-1.94999 1 0.0
-1.92499 0.9625 0.0
-1.92499 0.925 0.0
-1.89998 0.9 0.0
-1.89958 0.125 0.0
-1.92827 0.178571 0.0
-1.89958 0.233333 0.0
-1.89045 0.290909 0.0
-1.86096 0.311538 0.0
-1.89241 0.392857 0.0
-1.89334 0.448489 0.0
-1.85655 0.357143 0.0
-1.89614 0.653846 0.0
-1.89427 0.504121 0.0
-1.8952 0.559753 0.0
-1.89614 0.615385 0.0
-1.84937 0 0.0
-1.83264 0.0333333 0.0
-1.85655 0.107143 0.0
-1.81172 0.075 0.0
-1.89998 0.766667 0.0
-1.89089 0.709091 0.0
-1.87498 0.85 0.0
-1.85998 0.79 0.0
-1.88748 0.8125 0.0
-1.89998 1 0.0
-1.88748 0.9625 0.0
-1.86664 0.933333 0.0
-1.85712 0.892857 0.0
-1.87448 0.15 0.0
-1.86611 0.194444 0.0
-1.83264 0.133333 0.0
-1.83264 0.2625 0.0
-1.82068 0.321429 0.0
-1.85664 0.404762 0.0
-1.85674 0.452381 0.0
-1.85683 0.5 0.0
-1.81184 0.375 0.0
-1.85712 0.642857 0.0
-1.85693 0.547619 0.0
-1.85702 0.595238 0.0
-1.79917 0 0.0
-1.78482 0.0357143 0.0
-1.79917 0.116667 0.0
-1.76569 0.0666666 0.0
-1.85452 0.745455 0.0
-1.82689 0.692308 0.0
-1.81815 0.781818 0.0
-1.82497 0.825 0.0
-1.84997 1 0.0
-1.8333 0.958333 0.0
-1.81247 0.8875 0.0
-1.81247 0.925 0.0
-1.81742 0.218182 0.0
-1.82427 0.175 0.0
-1.77634 0.145455 0.0
-1.79144 0.242308 0.0
-1.78482 0.285714 0.0
-1.77469 0.332653 0.0
-1.81215 0.529762 0.0
-1.81194 0.422619 0.0
-1.81203 0.470238 0.0
-1.76714 0.392857 0.0
-1.81234 0.625 0.0
-1.79732 0.571429 0.0
-1.74896 0 0.0
-1.73222 0.0333333 0.0
-1.75398 0.105 0.0
-1.71883 0.07 0.0
-1.79227 0.730769 0.0
-1.78007 0.679121 0.0
-1.75765 0.769231 0.0
-1.78178 0.818182 0.0
-1.78996 0.86 0.0
-1.79996 1 0.0
-1.78568 0.964286 0.0
-1.76663 0.922222 0.0
-1.76569 0.1875 0.0
-1.73222 0.15 0.0
-1.74896 0.25 0.0
-1.73714 0.304762 0.0
-1.76743 0.537202 0.0
-1.72869 0.343878 0.0
-1.76732 0.485119 0.0
-1.76723 0.440476 0.0
-1.72243 0.410714 0.0
-1.76757 0.607143 0.0
-1.69875 0 0.0
-1.68369 0.035 0.0
-1.69875 0.1125 0.0
-1.66528 0.075 0.0
-1.74341 0.708974 0.0
-1.73324 0.665934 0.0
-1.70441 0.74478 0.0
-1.71423 0.785714 0.0
-1.72303 0.826923 0.0
-1.74541 0.854545 0.0
-1.74541 0.890909 0.0
-1.74996 1 0.0
-1.73745 0.9625 0.0
-1.71359 0.927273 0.0
-1.68716 0.153846 0.0
-1.7131 0.214286 0.0
-1.70725 0.275 0.0
-1.69712 0.321939 0.0
-1.72279 0.589286 0.0
-1.72261 0.5 0.0
-1.7227 0.544643 0.0
-1.6827 0.355102 0.0
-1.67773 0.428571 0.0
-1.70763 0.464286 0.0
-1.70369 0.62449 0.0
-1.64854 0 0.0
-1.63181 0.0375 0.0
-1.64137 0.142857 0.0
-1.61764 0.0769231 0.0
-1.69458 0.703846 0.0
-1.67471 0.657437 0.0
-1.66143 0.727637 0.0
-1.67125 0.768571 0.0
-1.67851 0.821429 0.0
-1.68841 0.861538 0.0
-1.70904 0.890909 0.0
-1.69995 1 0.0
-1.68176 0.963636 0.0
-1.67267 0.927273 0.0
-1.65427 0.187143 0.0
-1.66718 0.231429 0.0
-1.66554 0.3 0.0
-1.67802 0.571429 0.0
-1.67792 0.523809 0.0
-1.6367 0.366327 0.0
-1.63682 0.423469 0.0
-1.62568 0.502976 0.0
-1.6629 0.470238 0.0
-1.65254 0.618367 0.0
-1.6059 0.307143 0.0
-1.59833 0 0.0
-1.58288 0.0384615 0.0
-1.60563 0.169643 0.0
-1.58179 0.112271 0.0
-1.56964 0.0714286 0.0
-1.64574 0.690385 0.0
-1.62827 0.751429 0.0
-1.63371 0.791071 0.0
-1.64279 0.857143 0.0
-1.65378 0.896154 0.0
-1.64994 1 0.0
-1.6363 0.963636 0.0
-1.61916 0.930769 0.0
-1.61345 0.209107 0.0
-1.62126 0.248571 0.0
-1.56989 0.196429 0.0
-1.63324 0.553571 0.0
-1.58846 0.535714 0.0
-1.59408 0.361905 0.0
-1.59161 0.402211 0.0
-1.58832 0.464286 0.0
-1.61504 0.598581 0.0
-1.59683 0.64359 0.0
-1.57899 0.274107 0.0
-1.56176 0.322381 0.0
-1.54812 0 0.0
-1.53378 0.0357143 0.0
-1.54593 0.147619 0.0
-1.53385 0.0732143 0.0
-1.53393 0.110714 0.0
-1.58522 0.704286 0.0
-1.58709 0.745 0.0
-1.58896 0.785714 0.0
-1.60695 0.830357 0.0
-1.60707 0.892857 0.0
-1.59993 1 0.0
-1.58454 0.965385 0.0
-1.57135 0.928571 0.0
-1.55209 0.241071 0.0
-1.5291 0.198214 0.0
-1.56936 0.570918 0.0
-1.54369 0.517857 0.0
-1.5464 0.380952 0.0
-1.54564 0.427721 0.0
-1.54488 0.47449 0.0
-1.55026 0.606122 0.0
-1.54222 0.677143 0.0
-1.52943 0.282857 0.0
-1.52143 0.33619 0.0
-1.49792 0 0.0
-1.49802 0.05 0.0
-1.49822 0.15 0.0
-1.49312 0.1 0.0
-1.5423 0.717143 0.0
-1.54419 0.767857 0.0
-1.54727 0.819048 0.0
-1.57122 0.861905 0.0
-1.53553 0.914286 0.0
-1.54992 1 0.0
-1.53563 0.964286 0.0
-1.49842 0.25 0.0
-1.48831 0.2 0.0
-1.5214 0.558929 0.0
-1.49891 0.5 0.0
-1.49871 0.4 0.0
-1.47631 0.45 0.0
-1.49911 0.6 0.0
-1.49921 0.65 0.0
-1.49931 0.7 0.0
-1.48111 0.35 0.0
-1.48351 0.3 0.0
-1.44771 0 0.0
-1.44782 0.05 0.0
-1.44804 0.15 0.0
-1.44793 0.1 0.0
-1.49941 0.75 0.0
-1.49951 0.8 0.0
-1.49981 0.95 0.0
-1.49961 0.85 0.0
-1.49971 0.9 0.0
-1.49991 1 0.0
-1.44826 0.25 0.0
-1.43815 0.2 0.0
-1.47151 0.55 0.0
-1.44881 0.5 0.0
-1.44859 0.4 0.0
-1.42619 0.45 0.0
-1.44913 0.65 0.0
-1.44902 0.6 0.0
-1.44935 0.75 0.0
-1.44924 0.7 0.0
-1.43972 0.35 0.0
-1.43336 0.3 0.0
-1.3975 0 0.0
-1.39762 0.05 0.0
-1.39786 0.15 0.0
-1.39274 0.1 0.0
-1.44957 0.85 0.0
-1.44946 0.8 0.0
-1.4523 0.95 0.0
-1.44968 0.9 0.0
-1.4499 1 0.0
-1.3981 0.25 0.0
-1.38798 0.2 0.0
-1.42141 0.55 0.0
-1.3987 0.5 0.0
-1.39834 0.35 0.0
-1.37845 0.4 0.0
-1.37607 0.45 0.0
-1.40784 0.65 0.0
-1.39894 0.6 0.0
-1.41185 0.75 0.0
-1.39918 0.7 0.0
-1.38322 0.3 0.0
-1.34729 0 0.0
-1.34492 0.05 0.0
-1.34018 0.15 0.0
-1.34255 0.1 0.0
-1.40707 0.85 0.0
-1.39941 0.8 0.0
-1.39977 0.95 0.0
-1.39965 0.9 0.0
-1.39989 1 0.0
-1.33781 0.2 0.0
-1.33544 0.25 0.0
-1.37131 0.55 0.0
-1.34859 0.5 0.0
-1.33833 0.4 0.0
-1.3307 0.35 0.0
-1.32595 0.45 0.0
-1.34885 0.6 0.0
-1.36655 0.65 0.0
-1.36179 0.75 0.0
-1.34911 0.7 0.0
-1.33307 0.3 0.0
-1.29708 0 0.0
-1.29722 0.05 0.0
-1.2975 0.15 0.0
-1.29236 0.1 0.0
-1.35703 0.85 0.0
-1.34937 0.8 0.0
-1.34988 1 0.0
-1.34962 0.9 0.0
-1.35226 0.95 0.0
-1.28528 0.25 0.0
-1.28764 0.2 0.0
-1.28931 0.35 0.0
-1.32121 0.55 0.0
-1.29848 0.5 0.0
-1.28709 0.45 0.0
-1.2982 0.4 0.0
-1.29876 0.6 0.0
-1.31647 0.65 0.0
-1.29918 0.75 0.0
-1.29904 0.7 0.0
-1.28292 0.3 0.0
-1.24687 0 0.0
-1.24702 0.05 0.0
-1.24717 0.1 0.0
-1.24732 0.15 0.0
-1.29946 0.85 0.0
-1.29932 0.8 0.0
-1.29987 1 0.0
-1.29974 0.95 0.0
-1.30462 0.9 0.0
-1.24762 0.25 0.0
-1.23747 0.2 0.0
-1.24792 0.35 0.0
-1.22807 0.4 0.0
-1.27111 0.55 0.0
-1.24837 0.5 0.0
-1.24822 0.45 0.0
-1.24867 0.6 0.0
-1.26639 0.65 0.0
-1.26167 0.75 0.0
-1.24897 0.7 0.0
-1.23277 0.3 0.0
-1.19667 0 0.0
-1.19683 0.05 0.0
-1.18964 0.15 0.0
-1.19198 0.1 0.0
-1.25695 0.85 0.0
-1.24927 0.8 0.0
-1.25223 0.95 0.0
-1.24987 1 0.0
-1.24957 0.9 0.0
-1.1873 0.2 0.0
-1.18496 0.25 0.0
-1.18028 0.35 0.0
-1.17794 0.4 0.0
-1.1981 0.45 0.0
-1.19842 0.55 0.0
-1.19826 0.5 0.0
-1.19858 0.6 0.0
-1.19874 0.65 0.0
-1.19906 0.75 0.0
-1.1989 0.7 0.0
-1.18262 0.3 0.0
-1.14646 0 0.0
-1.14663 0.05 0.0
-1.1418 0.1 0.0
-1.13713 0.2 0.0
-1.14697 0.15 0.0
-1.20691 0.85 0.0
-1.20926 0.8 0.0
-1.20221 0.95 0.0
-1.19986 1 0.0
-1.20456 0.9 0.0
-1.13997 0.3 0.0
-1.14731 0.25 0.0
-1.13781 0.4 0.0
-1.13014 0.35 0.0
-1.12548 0.45 0.0
-1.14815 0.5 0.0
-1.15962 0.55 0.0
-1.14849 0.6 0.0
-1.15745 0.65 0.0
-1.16155 0.75 0.0
-1.14917 0.8 0.0
-1.14883 0.7 0.0
-1.09625 0 0.0
-1.09661 0.1 0.0
-1.09393 0.05 0.0
-1.09697 0.2 0.0
-1.08929 0.15 0.0
-1.15687 0.85 0.0
-1.14985 1 0.0
-1.15219 0.95 0.0
-1.14951 0.9 0.0
-1.09733 0.3 0.0
-1.08465 0.25 0.0
-1.09769 0.4 0.0
-1.08 0.35 0.0
-1.08661 0.45 0.0
-1.09804 0.5 0.0
-1.12082 0.55 0.0
-1.10916 0.8 0.0
-1.10629 0.7 0.0
-1.0984 0.6 0.0
-1.11616 0.65 0.0
-1.11149 0.75 0.0
-1.04604 0 0.0
-1.04623 0.05 0.0
-1.04642 0.1 0.0
-1.0468 0.2 0.0
-1.03911 0.15 0.0
-1.09948 0.9 0.0
-1.0993 0.85 0.0
-1.09984 1 0.0
-1.09966 0.95 0.0
-1.04718 0.3 0.0
-1.03449 0.25 0.0
-1.04756 0.4 0.0
-1.02986 0.35 0.0
-1.04775 0.45 0.0
-1.04794 0.5 0.0
-1.04813 0.55 0.0
-1.05911 0.8 0.0
-1.04831 0.6 0.0
-1.06376 0.7 0.0
-1.0485 0.65 0.0
-1.04888 0.75 0.0
-0.995833 0 0.0
-0.991231 0.1 0.0
-0.996033 0.05 0.0
-0.986629 0.2 0.0
-0.98893 0.15 0.0
-1.05447 0.9 0.0
-1.04926 0.85 0.0
-1.04983 1 0.0
-1.04964 0.95 0.0
-0.984328 0.25 0.0
-0.99703 0.3 0.0
-0.997429 0.4 0.0
-0.997628 0.45 0.0
-0.979726 0.35 0.0
-0.997827 0.5 0.0
-0.998027 0.55 0.0
-0.998226 0.6 0.0
-0.961416 0.475 0.0
-1.00907 0.8 0.0
-0.998426 0.65 0.0
-0.998625 0.7 0.0
-1.01138 0.75 0.0
-0.945625 0 0.0
-0.946044 0.1 0.0
-0.943334 0.05 0.0
-0.946463 0.2 0.0
-0.938752 0.15 0.0
-1.00444 0.9 0.0
-1.00675 0.85 0.0
-0.999821 1 0.0
-1.00213 0.95 0.0
-0.93417 0.25 0.0
-0.946881 0.3 0.0
-0.9473 0.4 0.0
-0.929588 0.35 0.0
-0.925005 0.45 0.0
-0.960371 0.525 0.0
-0.959325 0.575 0.0
-0.958279 0.625 0.0
-0.922714 0.5 0.0
-0.959017 0.8 0.0
-0.957233 0.675 0.0
-0.952999 0.7125 0.0
-0.948766 0.75 0.0
-0.895417 0 0.0
-0.895855 0.1 0.0
-0.893136 0.05 0.0
-0.896294 0.2 0.0
-0.888573 0.15 0.0
-0.949184 0.85 0.0
-0.954415 0.9 0.0
-0.949812 1 0.0
-0.949603 0.95 0.0
-0.884011 0.25 0.0
-0.896733 0.3 0.0
-0.874887 0.45 0.0
-0.879449 0.35 0.0
-0.897171 0.4 0.0
-0.920423 0.55 0.0
-0.918132 0.6 0.0
-0.915841 0.65 0.0
-0.872606 0.5 0.0
-0.908968 0.8 0.0
-0.91355 0.7 0.0
-0.898707 0.75 0.0
-0.845208 0 0.0
-0.845438 0.05 0.0
-0.845667 0.1 0.0
-0.845896 0.15 0.0
-0.833853 0.25 0.0
-0.846126 0.2 0.0
-0.899146 0.85 0.0
-0.904386 0.9 0.0
-0.899584 0.95 0.0
-0.899804 1 0.0
-0.838062 0.35 0.0
[...]
POINT_DATA 10839
VECTORS Velocity float
0.21 0 0.0
0.24 0 0.0
0.2275 0 0.0
0.2475 0 0.0
0.25 0 0.0
0.2475 0 0.0
0 0 0.0
0.0475 0 0.0
0.1275 0 0.0
0.09 0 0.0
0.09 0 0.0
0.1275 0 0.0
0.1875 0 0.0
0.16 0 0.0
0.195557 -2.09547e-05 0.0
0.242841 -2.78039e-05 0.0
0.215776 -2.47934e-05 0.0
0.231406 -2.77046e-05 0.0
0.248725 -2.91414e-05 0.0
0.24 0 0.0
0.24284 -2.64702e-05 0.0
0.24852 -2.75898e-05 0.0
0 0 0.0
0.0622237 -3.6917e-06 0.0
0.0322264 -2.43114e-06 0.0
0.16 0 0.0
0.1875 0 0.0
0.21 0 0.0
0.2275 0 0.0
0.193592 -2.1596e-05 0.0
0.138888 -1.22898e-05 0.0
0 0 0.0
0.0475 0 0.0
0.0998419 -8.74197e-06 0.0
0.0622208 -3.68619e-06 0.0
0.0998459 -9.55292e-06 0.0
0.13889 -1.32539e-05 0.0
0.174379 -3.30968e-05 0.0
0.201605 -4.5149e-05 0.0
0.235786 -5.40945e-05 0.0
0.244084 -5.59333e-05 0.0
0.2236 -7.32288e-05 0.0
0.24975 -5.72571e-05 0.0
0.249043 -6.27865e-05 0.0
0.231404 -2.62811e-05 0.0
0.244081 -5.26254e-05 0.0
0 0 0.0
0.0361063 -4.69663e-06 0.0
0.0736111 -1.30837e-05 0.0
0.0622457 -1.43691e-05 0.0
0.174371 -2.97921e-05 0.0
0.220163 -4.10894e-05 0.0
0.201596 -4.10327e-05 0.0
0.11555 -1.8366e-05 0.0
0.146678 -2.78831e-05 0.0
0 0 0.0
0.0360883 -3.12277e-06 0.0
0.0693676 -9.87656e-06 0.0
0.0899867 -1.90606e-05 0.0
0.109389 -2.74487e-05 0.0
0.14669 -2.97544e-05 0.0
0.1789 -5.55146e-05 0.0
0.206291 -7.22939e-05 0.0
0.214497 -9.73368e-05 0.0
0.238525 -8.44772e-05 0.0
0.247348 -8.63124e-05 0.0
0.229603 -0.000108829 0.0
0.226325 -6.97235e-05 0.0
0.249981 -8.48372e-05 0.0
0.246426 -8.09345e-05 0.0
0.23668 -7.50684e-05 0.0
0 0 0.0
0.0322471 -5.37012e-06 0.0
0.0956923 -3.11604e-05 0.0
0.0694222 -2.35687e-05 0.0
0.178879 -4.90488e-05 0.0
0.206271 -6.50144e-05 0.0
0.127482 -3.82471e-05 0.0
0.16588 -6.12341e-05 0.0
0.15233 -4.46912e-05 0.0
0 0 0.0
0.0360817 -4.38091e-06 0.0
0.0622006 -1.33237e-05 0.0
0.095637 -2.91436e-05 0.0
0.127521 -4.24922e-05 0.0
0.156658 -6.18903e-05 0.0
0.115595 -4.87529e-05 0.0
0.193622 -0.00010236 0.0
0.218135 -0.000128939 0.0
0.240936 -0.000114142 0.0
0.247734 -0.000116138 0.0
0.249997 -0.000114891 0.0
0.23439 -0.000147136 0.0
0.229579 -9.61061e-05 0.0
0.247726 -0.000111003 0.0
0.240919 -0.000105048 0.0
0 0 0.0
0.0344812 -7.45114e-06 0.0
0.103113 -4.78037e-05 0.0
0.0622923 -2.3636e-05 0.0
0.189733 -7.58258e-05 0.0
0.212995 -0.000104325 0.0
0.170545 -8.11519e-05 0.0
0.144341 -6.12001e-05 0.0
0 0 0.0
0.0399036 -7.27717e-06 0.0
0.0997991 -3.92231e-05 0.0
0.069332 -2.10657e-05 0.0
0.170619 -9.45255e-05 0.0
0.144416 -7.12388e-05 0.0
0.124367 -7.18399e-05 0.0
0.183643 -0.000120217 0.0
0.204124 -0.000144133 0.0
0.222028 -0.00016868 0.0
0.249104 -0.000147371 0.0
0.244019 -0.000152078 0.0
0.249113 -0.000152319 0.0
0.238538 -0.000187432 0.0
0.234354 -0.00012889 0.0
0.24488 -0.00015093 0.0
0 0 0.0
0.0322829 -7.59374e-06 0.0
0.0940611 -4.94918e-05 0.0
0.0652007 -2.82874e-05 0.0
0.196709 -0.00010949 0.0
0.21788 -0.00013375 0.0
0.17746 -0.000109441 0.0
0.148709 -7.92145e-05 0.0
0.120346 -5.67513e-05 0.0
0 0 0.0
0.0343994 -6.84087e-06 0.0
0.0716619 -2.75241e-05 0.0
0.152415 -0.000103946 0.0
0.127602 -8.85974e-05 0.0
0.187569 -0.000150932 0.0
0.211939 -0.000188766 0.0
0.248597 -0.000179508 0.0
0.225669 -0.000212215 0.0
0.249771 -0.000188045 0.0
0.246461 -0.000190703 0.0
0.242044 -0.000229753 0.0
0.23849 -0.000162089 0.0
0 0 0.0
0.0338592 -8.30118e-06 0.0
0.099974 -6.28387e-05 0.0
0.0695178 -3.22654e-05 0.0
0.206278 -0.000139319 0.0
0.222415 -0.000162194 0.0
0.190008 -0.00014041 0.0
0.168289 -0.000117397 0.0
0.143038 -9.3873e-05 0.0
0.124221 -7.1337e-05 0.0
0.0971089 -4.93068e-05 0.0
0 0 0.0
0.0360345 -8.89892e-06 0.0
0.0673406 -3.11998e-05 0.0
0.13032 -0.000105441 0.0
0.168472 -0.000148699 0.0
0.19946 -0.000197755 0.0
0.218361 -0.00023227 0.0
0.241986 -0.000196796 0.0
0.249981 -0.000222341 0.0
0.247975 -0.000210694 0.0
0.229057 -0.000260245 0.0
0.244904 -0.000273141 0.0
0.248716 -0.000241439 0.0
0.234447 -0.000192812 0.0
0 0 0.0
0.0362038 -7.44327e-06 0.0
0.122643 -0.000101892 0.0
0.0711877 -2.93204e-05 0.0
0.208375 -0.000162023 0.0
0.225139 -0.000191123 0.0
0.19809 -0.000161565 0.0
0.177775 -0.000139507 0.0
0.146577 -0.000111364 0.0
0.119177 -8.37463e-05 0.0
0.0970849 -5.75899e-05 0.0
0 0 0.0
0.0349561 -1.1386e-05 0.0
0.0673098 -3.86809e-05 0.0
0.152292 -0.000153379 0.0
0.178008 -0.000195711 0.0
0.210098 -0.000251666 0.0
0.244842 -0.000230588 0.0
0.249393 -0.000251307 0.0
0.232188 -0.000313215 0.0
0.244149 -0.000317921 0.0
0.249937 -0.000302091 0.0
0.249094 -0.000281651 0.0
0.235909 -0.000220107 0.0
0.212939 -0.000325595 0.0
0 0 0.0
0.0371098 -3.96507e-06 0.0
0.141108 -0.000150108 0.0
0.0999281 -6.27113e-05 0.0
0.0665346 -1.61691e-05 0.0
0.21366 -0.000184183 0.0
0.186673 -0.000158761 0.0
0.165159 -0.000139293 0.0
0.122307 -0.000103483 0.0
0.0929147 -7.05054e-05 0.0
0 0 0.0
0.0349262 -1.52759e-05 0.0
0.0642617 -5.01245e-05 0.0
0.165597 -0.00020685 0.0
0.18696 -0.000252604 0.0
0.158141 -0.000217958 0.0
0.247057 -0.000267586 0.0
0.248628 -0.000310845 0.0
0.231002 -0.000369386 0.0
0.24046 -0.000375871 0.0
0.248681 -0.000357775 0.0
0.240183 -0.000248255 0.0
0.229263 -0.00022071 0.0
0.199172 -0.00033085 0.0
0.218595 -0.000401422 0.0
0 0 0.0
0.0345652 1.50253e-06 0.0
0.126183 -0.000128651 0.0
0.0680918 -1.02781e-05 0.0
0.09879 -5.6556e-05 0.0
0.208141 -0.000183615 0.0
0.189848 -0.0001644 0.0
0.168234 -0.000151155 0.0
0.140717 -0.00013072 0.0
0.0954769 -9.32346e-05 0.0
0 0 0.0
0.0332604 -2.00311e-05 0.0
0.0660917 -7.07649e-05 0.0
0.183238 -0.000318232 0.0
0.159308 -0.000259459 0.0
0.244842 -0.000289228 0.0
0.249553 -0.000359407 0.0
0.235877 -0.000445915 0.0
0.244751 -0.000433064 0.0
0.249262 -0.00040204 0.0
0.238583 -0.00025778 0.0
0.218463 -0.000193988 0.0
0.203095 -0.000420556 0.0
0.223307 -0.000484519 0.0
0 0 0.0
0.0476756 4.88161e-06 0.0
0.127976 -0.000157541 0.0
0.0903737 -4.07442e-05 0.0
0.202702 -0.000168397 0.0
0.178112 -0.000153455 0.0
0.148053 -0.000150117 0.0
0.118838 -0.000130417 0.0
0.0780882 -0.000105511 0.0
0 0 0.0
0.0342186 -2.92934e-05 0.0
0.187869 -0.000425005 0.0
0.160489 -0.000319151 0.0
0.246348 -0.000321582 0.0
0.249833 -0.000419407 0.0
0.239999 -0.000529311 0.0
0.247376 -0.000521712 0.0
0.239781 -0.000264946 0.0
0.227293 -0.000200719 0.0
0.209823 -0.000153082 0.0
0.227621 -0.000581385 0.0
0.210262 -0.000541748 0.0
0 0 0.0
0.0476835 4.43917e-06 0.0
0.128138 -0.000211691 0.0
0.0904619 -5.67277e-05 0.0
0.187351 -0.000135185 0.0
0.159859 -0.000140816 0.0
0.0471767 -5.92262e-05 0.0
0.127313 -0.000153341 0.0
0.0897041 -0.000135103 0.0
0 0 0.0
0.187983 -0.000547448 0.0
0.160655 -0.000422377 0.0
0.247244 -0.000354488 0.0
0.249741 -0.000472317 0.0
0.239961 -0.000640805 0.0
0.247285 -0.000614989 0.0
0.227228 -0.000159673 0.0
0.239693 -0.000249835 0.0
0.18735 -7.94837e-05 0.0
0.209784 -9.80193e-05 0.0
0.227624 -0.00069483 0.0
0.210321 -0.000692296 0.0
0 0 0.0
0.0477083 -9.72237e-06 0.0
0.128345 -0.000318196 0.0
0.0906168 -0.000118037 0.0
0.12733 -0.000136655 0.0
0.159883 -0.000100218 0.0
0.0470865 -6.53588e-05 0.0
0.0896591 -0.000137887 0.0
0 0 0.0
0.188118 -0.000723223 0.0
0.160858 -0.000585106 0.0
0.247128 -0.000365584 0.0
0.249611 -0.000526501 0.0
0.22761 -0.000837033 0.0
0.239857 -0.000847935 0.0
0.247159 -0.000724783 0.0
0.227153 -0.000103403 0.0
0.23957 -0.000212949 0.0
0.187353 -7.73327e-06 0.0
0.209737 1.51625e-06 0.0
0.210377 -0.000892352 0.0
0 0 0.0
0.0477846 -3.9096e-05 0.0
0.128654 -0.000536821 0.0
0.090833 -0.000231831 0.0
0.127364 -8.25315e-05 0.0
0.159929 -7.77817e-06 0.0
0.0469938 -6.03984e-05 0.0
0.0896361 -0.000107861 0.0
0 0 0.0
0.161097 -0.000830723 0.0
0.188305 -0.00104041 0.0
0.246964 -0.000368054 0.0
0.249424 -0.000586627 0.0
0.239753 -0.0010003 0.0
0.227553 -0.0011389 0.0
0.24697 -0.000855097 0.0
0.239398 -0.000149706 0.0
0.227053 -1.82795e-05 0.0
0.187357 0.000143594 0.0
0.209665 0.000153036 0.0
0.210423 -0.00116328 0.0
0 0 0.0
0.0479291 -8.63954e-05 0.0
0.128938 -0.000780708 0.0
0.0911602 -0.000411652 0.0
0.127438 4.42569e-05 0.0
0.159991 0.000157869 0.0
0 0 0.0
0.0896689 -2.37682e-05 0.0
0.0469336 -4.11731e-05 0.0
0.188451 -0.00140905 0.0
0.16136 -0.00117912 0.0
0.227471 -0.00138298 0.0
0.246737 -0.000357604 0.0
0.249166 -0.000652029 0.0
0.246772 -0.000973146 0.0
0.239612 -0.00117805 0.0
0.239159 -5.57674e-05 0.0
0.226891 0.000127002 0.0
0.187349 0.000443407 0.0
0.209558 0.000369901 0.0
0.210441 -0.00150216 0.0
0 0 0.0
0.0482053 -0.000165981 0.0
0.0915845 -0.00063151 0.0
0.129349 -0.00116366 0.0
0.127586 0.000303831 0.0
0.160065 0.000419366 0.0
0 0 0.0
0.0469368 9.11132e-07 0.0
0.0897708 0.00010824 0.0
0.188552 -0.00174631 0.0
0.16165 -0.00164708 0.0
0.227344 -0.00167317 0.0
0.23925 -0.00156014 0.0
0.246426 -0.000334525 0.0
0.248816 -0.000720633 0.0
0.246524 -0.00110934 0.0
0.238836 7.1688e-05 0.0
0.22666 0.000325629 0.0
0.18731 0.000695303 0.0
0.209396 0.00066086 0.0
0.210411 -0.00193037 0.0
0 0 0.0
0.0486462 -0.000256595 0.0
0.129992 -0.00174308 0.0
0.0923453 -0.000985746 0.0
0.127743 0.000580025 0.0
0.160144 0.000788751 0.0
0.0470477 6.20496e-05 0.0
0 0 0.0
0.0900394 0.000340437 0.0
0.161957 -0.00223375 0.0
0.188684 -0.00245046 0.0
0.22703 -0.00224236 0.0
0.238859 -0.00189337 0.0
0.246097 -0.00131522 0.0
0.245798 -0.000275593 0.0
0.248353 -0.000803974 0.0
0.238408 0.000235967 0.0
0.226216 0.000683602 0.0
0.187211 0.00124289 0.0
0.209155 0.00103371 0.0
0.21032 -0.00245488 0.0
0 0 0.0
0.0492863 -0.000376016 0.0
0.0932678 -0.00135477 0.0
0.162297 -0.00292706 0.0
0.130553 -0.00224767 0.0
0.128016 0.00100429 0.0
0.160196 0.00116346 0.0
0.0473004 0.000148932 0.0
0 0 0.0
0.0903995 0.000578548 0.0
0.210173 -0.00297008 0.0
0.188709 -0.00295524 0.0
0.238463 -0.00220437 0.0
0.226652 -0.00276099 0.0
0.245267 -0.00165363 0.0
0.247757 -0.00089285 0.0
0.245332 -0.000232916 0.0
0.237852 0.000433895 0.0
0.225826 0.000954166 0.0
0.187079 0.00164176 0.0
0.160303 0.0018641 0.0
0.208819 0.00148534 0.0
0 0 0.0
0.094386 -0.00173207 0.0
0.0501793 -0.000508925 0.0
0.162598 -0.00356931 0.0
0.131567 -0.00300886 0.0
0.128405 0.00152164 0.0
0 0 0.0
0.0477251 0.000245113 0.0
0.0911046 0.000936122 0.0
0.209957 -0.00354517 0.0
0.18872 -0.00392544 0.0
0.237972 -0.00253306 0.0
0.226166 -0.00334755 0.0
0.24466 -0.00187076 0.0
0.246997 -0.00099432 0.0
0.244794 -0.000184887 0.0
0.160354 0.00239118 0.0
0.208433 0.00193073 0.0
0.237138 0.000663097 0.0
0.225355 0.00126027 0.0
0.186856 0.00225733 0.0
0 0 0.0
0.0512133 -0.000627152 0.0
0.0958534 -0.00216364 0.0
0.163014 -0.00441226 0.0
0.132642 -0.00371115 0.0
0.0920121 0.00130664 0.0
0.129014 0.00218325 0.0
0 0 0.0
0.0483914 0.000368503 0.0
0.209589 -0.00430878 0.0
0.188643 -0.00479132 0.0
0.23722 -0.0030038 0.0
0.225523 -0.00399249 0.0
0.243983 -0.00210267 0.0
0.246078 -0.00110813 0.0
0.243511 -7.34634e-05 0.0
0.160477 0.00313122 0.0
0.236266 0.000920036 0.0
0.207958 0.0024223 0.0
0.224369 0.00183667 0.0
0.186461 0.00312617 0.0
0 0 0.0
0.0978736 -0.0026192 0.0
0.0526199 -0.000762552 0.0
0.163646 -0.00549058 0.0
0.133988 -0.00442107 0.0
0.0930594 0.00165755 0.0
0.12975 0.00278709 0.0
0 0 0.0
0.0491863 0.000480771 0.0
0.188539 -0.00572108 0.0
0.209114 -0.00514035 0.0
0.23629 -0.00352352 0.0
0.242925 -0.00243258 0.0
0.224727 -0.00470078 0.0
0.244949 -0.00123649 0.0
0.242369 -1.54724e-06 0.0
0.235195 0.00119364 0.0
0.243586 -0.00202421 0.0
0.160619 0.00388558 0.0
0.223408 0.00230695 0.0
0.207019 0.00324646 0.0
0.186147 0.00368041 0.0
0 0 0.0
0.0998095 -0.00297088 0.0
0.0542279 -0.000896825 0.0
0.164136 -0.00620985 0.0
0.135588 -0.00511135 0.0
0.0944692 0.00200932 0.0
0.130526 0.00330829 0.0
0 0 0.0
0.0502019 0.000574094 0.0
0.188408 -0.00668593 0.0
0.208509 -0.00603046 0.0
0.235169 -0.00407929 0.0
0.223765 -0.00546399 0.0
0.241023 -0.00296758 0.0
0.243249 -0.000645458 0.0
0.238358 0.000749626 0.0
0.228927 0.00208402 0.0
0.242866 -0.00145789 0.0
0.160862 0.00464396 0.0
0.214953 0.00328504 0.0
0.201463 0.0040799 0.0
0.185584 0.00464586 0.0
0 0 0.0
0.102225 -0.00332194 0.0
0.0560142 -0.00100348 0.0
0.164924 -0.0070872 0.0
0.137467 -0.00574108 0.0
0.131857 0.00396786 0.0
0.0961611 0.00232631 0.0
0 0 0.0
0.0515457 0.000671337 0.0
0.188287 -0.00766113 0.0
0.207803 -0.00696032 0.0
0.239449 -0.00336411 0.0
0.222633 -0.00626868 0.0
0.233855 -0.00468636 0.0
0.240201 0.000106766 0.0
0.233052 0.00166674 0.0
0.221435 0.00312873 0.0
0.241183 -0.00163171 0.0
0.161195 0.00533778 0.0
0.205413 0.00438375 0.0
0.185073 0.00539714 0.0
0 0 0.0
0.057837 -0.00108598 0.0
0.104887 -0.00360178 0.0
0.139319 -0.00619979 0.0
0.188225 -0.00860577 0.0
0.165881 -0.0078995 0.0
0.13325 0.00446172 0.0
0.0980719 0.00258562 0.0
0.0528845 0.000764166 0.0
0 0 0.0
0.22157 -0.00696586 0.0
0.207013 -0.00790744 0.0
0.238063 -0.0037009 0.0
0.232332 -0.00532914 0.0
0.219978 0.00363515 0.0
0.238504 0.00017343 0.0
0.231421 0.00196327 0.0
0.239267 -0.00182789 0.0
0.184592 0.00609059 0.0
0.161817 0.00606269 0.0
0.203943 0.00524056 0.0
0 0 0.0
0.0599476 -0.0011268 0.0
0.108067 -0.003806 0.0
0.141729 -0.00664689 0.0
0.188239 -0.0092985 0.0
0.167378 -0.0087504 0.0
0.134881 0.00483034 0.0
0.100408 0.00277914 0.0
0.0544026 0.000812362 0.0
0 0 0.0
0.136789 0.00504601 0.0
0.220413 -0.00766702 0.0
0.2059 -0.00913005 0.0
0.229858 -0.00628376 0.0
0.236543 -0.0040534 0.0
0.21772 0.00429806 0.0
0.229564 0.00225293 0.0
0.236567 0.000217863 0.0
0.237096 -0.00205166 0.0
0.184166 0.00670434 0.0
0.162553 0.00649656 0.0
0.202695 0.00583163 0.0
0 0 0.0
0.062093 -0.0011425 0.0
0.111156 -0.00391331 0.0
0.144399 -0.0069512 0.0
0.188389 -0.0101042 0.0
0.168899 -0.00930114 0.0
0.0558805 0.00081351 0.0
0.102667 0.00283154 0.0
0 0 0.0
0.138496 0.00509665 0.0
0.218898 -0.0085182 0.0
0.205049 -0.0100148 0.0
0.227855 -0.00698063 0.0
0.234368 -0.00453955 0.0
0.216188 0.00464468 0.0
0.22749 0.00251341 0.0
0.234681 -0.00230739 0.0
0.233318 0.000241577 0.0
0.183909 0.00705088 0.0
0.163495 0.0067312 0.0
0.201418 0.00633194 0.0
0 0 0.0
0.0643036 -0.00115045 0.0
0.114298 -0.00394132 0.0
0.147736 -0.00712669 0.0
0.188849 -0.0109215 0.0
0.204245 -0.010805 0.0
0.170712 -0.0096818 0.0
0.0573924 0.000781358 0.0
0.104973 0.00277631 0.0
0 0 0.0
0.140664 0.00496479 0.0
0.216714 -0.00960517 0.0
0.226117 -0.00754816 0.0
0.231977 -0.00504249 0.0
0.232703 -0.00252557 0.0
0.214583 0.00493415 0.0
0.225197 0.00270777 0.0
0.23078 0.000205282 0.0
0.164702 0.0067334 0.0
0.183718 0.00732801 0.0
0.200159 0.00667428 0.0
0 0 0.0
0.0665086 -0.00117143 0.0
0.117496 -0.00388005 0.0
0.150863 -0.00712501 0.0
0.189317 -0.011276 0.0
0.203571 -0.0114521 0.0
0.172796 -0.00987805 0.0
0.0588537 0.000711754 0.0
0.107277 0.00261025 0.0
0 0 0.0
0.165757 0.00655515 0.0
0.10943 0.00234809 0.0
0.143207 0.00457129 0.0
0.215053 -0.0103355 0.0
0.224302 -0.00807613 0.0
0.228125 -0.00579117 0.0
0.230612 -0.00276155 0.0
0.228663 0.000133792 0.0
0.212562 0.00516446 0.0
0.221697 0.00284336 0.0
0.18373 0.00732331 0.0
0.199145 0.00679172 0.0
0.213711 -0.0108141 0.0
0 0 0.0
0.0686004 -0.00113025 0.0
0.154097 -0.00698135 0.0
0.120627 -0.00377079 0.0
0.203063 -0.0119193 0.0
0.190377 -0.0115994 0.0
0.175107 -0.00988308 0.0
0.0602868 0.000624008 0.0
0 0 0.0
0.18393 0.00707044 0.0
0.167279 0.0060775 0.0
0.145448 0.00400312 0.0
0.0613004 0.000549954 0.0
0.111401 0.00196144 0.0
0.221975 -0.00870239 0.0
0.225943 -0.00619132 0.0
0.22765 -0.00312029 0.0
0.225334 -0.0034265 0.0
0.226439 9.27102e-06 0.0
0.210514 0.00518397 0.0
0.219058 0.00275783 0.0
0.198234 0.00671258 0.0
0.212434 -0.0111952 0.0
0.0704722 -0.0011012 0.0
0 0 0.0
0.156825 -0.00678981 0.0
0.123652 -0.00362187 0.0
0.202753 -0.0121792 0.0
0.191239 -0.0116437 0.0
0.17761 -0.00972722 0.0
0 0 0.0
0.18433 0.00648031 0.0
0.169174 0.00515137 0.0
0.14717 0.00341062 0.0
0.0622102 0.000408375 0.0
0.113042 0.00152819 0.0
0.218619 -0.00943249 0.0
0.223702 -0.00657143 0.0
0.222989 -0.00376579 0.0
0.222062 -0.000401463 0.0
0.208526 0.00495406 0.0
0.216379 0.00246617 0.0
0.197061 0.00614827 0.0
0.211025 -0.0115164 0.0
0 0 0.0
0.0724505 -0.00104371 0.0
0.160001 -0.00652312 0.0
0.126275 -0.00348744 0.0
0.180195 -0.00944719 0.0
0.202678 -0.0122542 0.0
0.192877 -0.0114769 0.0
0 0 0.0
0 0 0.0
0.184924 0.00555428 0.0
0.170831 0.0041053 0.0
0.14904 0.00257766 0.0
0.114338 0.00104675 0.0
0.0628649 0.000250877 0.0
0.216333 -0.0098312 0.0
0.220795 -0.00705055 0.0
0.214265 0.00207879 0.0
0.219849 -0.00427429 0.0
0.219014 -0.000887987 0.0
0.20666 0.00441067 0.0
0.196395 0.00532792 0.0
0.214563 -0.0100827 0.0
0.209779 -0.0116826 0.0
0.0743755 -0.0010169 0.0
0.12904 -0.00335289 0.0
0.16312 -0.00627611 0.0
0.182354 -0.00919373 0.0
0.202806 -0.0121728 0.0
0.194034 -0.0113204 0.0
0 0 0.0
0 0 0.0
0.17198 0.00317339 0.0
0.185755 0.00402645 0.0
0.11513 0.000605515 0.0
0.150744 0.00154784 0.0
0.0632288 0.000109278 0.0
0.216693 -0.00771079 0.0
0.216796 -0.00488049 0.0
0.195904 0.00417505 0.0
0.212217 0.00152049 0.0
0.21668 -0.00138632 0.0
0.204375 0.00319277 0.0
0.212953 -0.0102905 0.0
0.208447 -0.0117546 0.0
0.203112 -0.0120264 0.0
0.0762422 -0.00104886 0.0
0.13173 -0.00329556 0.0
0.166489 -0.00610605 0.0
0.184929 -0.00889368 0.0
0.196023 -0.0109939 0.0
0 0 0.0
0 0 0.0
0.173491 0.00165096 0.0
0.186495 0.00256982 0.0
0.115701 6.34799e-05 0.0
0.151801 0.000635675 0.0
0.0633694 -2.55113e-05 0.0
0.214425 -0.00198484 0.0
0.213919 -0.00557431 0.0
0.214092 -0.00819058 0.0
0.195577 0.00277874 0.0
0.209836 0.000577837 0.0
0.202951 0.00193953 0.0
0.18711 0.00102516 0.0
0.210447 -0.0106455 0.0
0 0 0.0
0.207673 -0.0118326 0.0
0.197703 -0.010823 0.0
0.203547 -0.011914 0.0
0.0780105 -0.00108616 0.0
0.168946 -0.00609548 0.0
0.1346 -0.00339482 0.0
0.18796 -0.00876848 0.0
0 0 0.0
0 0 0.0
0 0 0.0
0 0 0.0
0 0 0.0
0.0632497 -0.000143713 0.0
0.152431 -0.000254993 0.0
0.174448 0.000353634 0.0
0.115827 -0.000343715 0.0
0.211692 -0.00290108 0.0
0.211304 -0.0063733 0.0
0.211713 -0.00873459 0.0
0.201889 0.000753176 0.0
0.195321 0.00119523 0.0
0.206804 -0.00109865 0.0
0.195143 -0.000214299 0.0
0.187433 -0.000122293 0.0
0.208945 -0.0110213 0.0
0.207086 -0.0119829 0.0
0 0 0.0
-9.62806e-05 8.41522e-05 0.0
0 0 0.0
-0.000751825 0.00730394 0.0
0.204077 -0.0119609 0.0
0.198917 -0.0108335 0.0
0.0800546 -0.00118858 0.0
0.171664 -0.00628069 0.0
0.137236 -0.00365434 0.0
0.190385 -0.00893839 0.0
0 0 0.0
0 0 0.0
0 0 0.0
-0.000660059 0.00505468 0.0
-0.000338912 0.000747341 0.0
-0.00076183 0.000756856 0.0
0 0 0.0
0.0628678 -0.000261282 0.0
0.152607 -0.000936544 0.0
0.174997 -0.000872921 0.0
0.115501 -0.000778599 0.0
0.209229 -0.00398945 0.0
0.208956 -0.00728097 0.0
0.209611 -0.00935111 0.0
0.200963 -0.000520528 0.0
0.205327 -0.00221742 0.0
0.194907 -0.00160229 0.0
0.187657 -0.00196025 0.0
0.207659 -0.0115361 0.0
0.207026 -0.0121795 0.0
0.205772 -0.0123583 0.0
0 0 0.0
-0.00073681 0.00033052 0.0
0 0 0.0
0 0 0.0
-0.00247447 0.0138162 0.0
-0.00281517 0.0105981 0.0
0.203736 -0.0120554 0.0
0.200437 -0.0111245 0.0
0.139697 -0.00405492 0.0
0.0821279 -0.00137797 0.0
0.174345 -0.00676627 0.0
0.192607 -0.00943543 0.0
0 0 0.0
-0.00167505 0.00390038 0.0
-0.00233708 0.00698598 0.0
-0.00171627 0.00238612 0.0
-0.00243902 0.00167793 0.0
0 0 0.0
0.0623204 -0.000360153 0.0
0.152422 -0.00165918 0.0
0.175139 -0.00198496 0.0
0.114876 -0.00112493 0.0
0.207018 -0.00518236 0.0
0.206912 -0.00829258 0.0
0.207777 -0.0101001 0.0
0.199618 -0.00272688 0.0
0.203951 -0.00338408 0.0
0.194558 -0.00318493 0.0
0.174949 -0.00298684 0.0
0.187589 -0.00330252 0.0
0.206757 -0.0120879 0.0
0.206366 -0.0127482 0.0
0.204964 -0.0127155 0.0
0 0 0.0
-0.0024076 0.000662972 0.0
0 0 0.0
0 0 0.0
0 0 0.0
0 0 0.0
-0.00562084 0.0108498 0.0
-0.000572644 0.0108519 0.0
-0.00229315 0.0163552 0.0
-0.00555863 0.0201828 0.0
-0.00530906 0.0155389 0.0
0 0 0.0
6.49096e-05 0.0128714 0.0
0.202157 -0.0120433 0.0
0.194341 -0.0101418 0.0
0 0 0.0
0.084802 -0.00170709 0.0
0.142704 -0.00471342 0.0
0.177468 -0.00788025 0.0
0 0 0.0
0 0 0.0
-0.00435928 0.00667863 0.0
-0.00443637 0.00421385 0.0
-0.00519943 0.00252826 0.0
0 0 0.0
0.06155 -0.000448769 0.0
0.151736 -0.00236904 0.0
0.113933 -0.00141392 0.0
0.17446 -0.0036628 0.0
0.205095 -0.00646547 0.0
0.20554 -0.0091173 0.0
0.20617 -0.0110171 0.0
0.19886 -0.00404906 0.0
0.20243 -0.00488459 0.0
0.19406 -0.00464343 0.0
0.187271 -0.00418901 0.0
0.205792 -0.0133403 0.0