# vtk DataFile Version 3.0
Mesh NS-CD Problem
ASCII
DATASET UNSTRUCTURED_GRID
POINTS 10839 float
-2 0.3 0.0
-2 0.4 0.0
-2 0.35 0.0
-2 0.45 0.0
-2 0.5 0.0
-2 0.55 0.0
-2 0 0.0
-2 0.05 0.0
-2 0.85 0.0
-2 0.9 0.0
-2 0.1 0.0
-2 0.15 0.0
-2 0.25 0.0
-2 0.2 0.0
-1.96653 0.266667 0.0
-1.96524 0.415385 0.0
-1.96485 0.315 0.0
-1.96348 0.363636 0.0
-1.96414 0.464286 0.0
-2 0.6 0.0
-1.96538 0.584615 0.0
-1.96538 0.538462 0.0
-1.94979 0 0.0
-1.96653 0.0666666 0.0
-1.93306 0.0333333 0.0
-2 0.8 0.0
-2 0.75 0.0
-2 0.7 0.0
-2 0.65 0.0
-1.96249 0.7375 0.0
-1.96666 0.833333 0.0
-2 1 0.0
-2 0.95 0.0
-1.96249 0.8875 0.0
-1.96666 0.933333 0.0
-1.96234 0.1125 0.0
-1.96653 0.166667 0.0
-1.93724 0.225 0.0
-1.92971 0.28 0.0
-1.93048 0.380769 0.0
-1.93048 0.423077 0.0
-1.89958 0.3375 0.0
-1.9292 0.484203 0.0
-1.92117 0.530907 0.0
-1.96363 0.636364 0.0
-1.93076 0.576923 0.0
-1.89958 0 0.0
-1.88703 0.0375 0.0
-1.90963 0.08 0.0
-1.86611 0.0666666 0.0
-1.93749 0.775 0.0
-1.93635 0.672727 0.0
-1.92999 0.72 0.0
-1.93332 0.866667 0.0
-1.92856 0.821429 0.0
-1.94999 1 0.0
-1.92499 0.9625 0.0
-1.92499 0.925 0.0
-1.89998 0.9 0.0
-1.89958 0.125 0.0
-1.92827 0.178571 0.0
-1.89958 0.233333 0.0
-1.89045 0.290909 0.0
-1.86096 0.311538 0.0
-1.89241 0.392857 0.0
-1.89334 0.448489 0.0
-1.85655 0.357143 0.0
-1.89614 0.653846 0.0
-1.89427 0.504121 0.0
-1.8952 0.559753 0.0
-1.89614 0.615385 0.0
-1.84937 0 0.0
-1.83264 0.0333333 0.0
-1.85655 0.107143 0.0
-1.81172 0.075 0.0
-1.89998 0.766667 0.0
-1.89089 0.709091 0.0
-1.87498 0.85 0.0
-1.85998 0.79 0.0
-1.88748 0.8125 0.0
-1.89998 1 0.0
-1.88748 0.9625 0.0
-1.86664 0.933333 0.0
-1.85712 0.892857 0.0
-1.87448 0.15 0.0
-1.86611 0.194444 0.0
-1.83264 0.133333 0.0
-1.83264 0.2625 0.0
-1.82068 0.321429 0.0
-1.85664 0.404762 0.0
-1.85674 0.452381 0.0
-1.85683 0.5 0.0
-1.81184 0.375 0.0
-1.85712 0.642857 0.0
-1.85693 0.547619 0.0
-1.85702 0.595238 0.0
-1.79917 0 0.0
-1.78482 0.0357143 0.0
-1.79917 0.116667 0.0
-1.76569 0.0666666 0.0
-1.85452 0.745455 0.0
-1.82689 0.692308 0.0
-1.81815 0.781818 0.0
-1.82497 0.825 0.0
-1.84997 1 0.0
-1.8333 0.958333 0.0
-1.81247 0.8875 0.0
-1.81247 0.925 0.0
-1.81742 0.218182 0.0
-1.82427 0.175 0.0
-1.77634 0.145455 0.0
-1.79144 0.242308 0.0
-1.78482 0.285714 0.0
-1.77469 0.332653 0.0
-1.81215 0.529762 0.0
-1.81194 0.422619 0.0
-1.81203 0.470238 0.0
-1.76714 0.392857 0.0
-1.81234 0.625 0.0
-1.79732 0.571429 0.0
-1.74896 0 0.0
-1.73222 0.0333333 0.0
-1.75398 0.105 0.0
-1.71883 0.07 0.0
-1.79227 0.730769 0.0
-1.78007 0.679121 0.0
-1.75765 0.769231 0.0
-1.78178 0.818182 0.0
-1.78996 0.86 0.0
-1.79996 1 0.0
-1.78568 0.964286 0.0
-1.76663 0.922222 0.0
-1.76569 0.1875 0.0
-1.73222 0.15 0.0
-1.74896 0.25 0.0
-1.73714 0.304762 0.0
-1.76743 0.537202 0.0
-1.72869 0.343878 0.0
-1.76732 0.485119 0.0
-1.76723 0.440476 0.0
-1.72243 0.410714 0.0
-1.76757 0.607143 0.0
-1.69875 0 0.0
-1.68369 0.035 0.0
-1.69875 0.1125 0.0
-1.66528 0.075 0.0
-1.74341 0.708974 0.0
-1.73324 0.665934 0.0
-1.70441 0.74478 0.0
-1.71423 0.785714 0.0
-1.72303 0.826923 0.0
-1.74541 0.854545 0.0
-1.74541 0.890909 0.0
-1.74996 1 0.0
-1.73745 0.9625 0.0
-1.71359 0.927273 0.0
-1.68716 0.153846 0.0
-1.7131 0.214286 0.0
-1.70725 0.275 0.0
-1.69712 0.321939 0.0
-1.72279 0.589286 0.0
-1.72261 0.5 0.0
-1.7227 0.544643 0.0
-1.6827 0.355102 0.0
-1.67773 0.428571 0.0
-1.70763 0.464286 0.0
-1.70369 0.62449 0.0
-1.64854 0 0.0
-1.63181 0.0375 0.0
-1.64137 0.142857 0.0
-1.61764 0.0769231 0.0
-1.69458 0.703846 0.0
-1.67471 0.657437 0.0
-1.66143 0.727637 0.0
-1.67125 0.768571 0.0
-1.67851 0.821429 0.0
-1.68841 0.861538 0.0
-1.70904 0.890909 0.0
-1.69995 1 0.0
-1.68176 0.963636 0.0
-1.67267 0.927273 0.0
-1.65427 0.187143 0.0
-1.66718 0.231429 0.0
-1.66554 0.3 0.0
-1.67802 0.571429 0.0
-1.67792 0.523809 0.0
-1.6367 0.366327 0.0
-1.63682 0.423469 0.0
-1.62568 0.502976 0.0
-1.6629 0.470238 0.0
-1.65254 0.618367 0.0
-1.6059 0.307143 0.0
-1.59833 0 0.0
-1.58288 0.0384615 0.0
-1.60563 0.169643 0.0
-1.58179 0.112271 0.0
-1.56964 0.0714286 0.0
-1.64574 0.690385 0.0
-1.62827 0.751429 0.0
-1.63371 0.791071 0.0
-1.64279 0.857143 0.0
-1.65378 0.896154 0.0
-1.64994 1 0.0
-1.6363 0.963636 0.0
-1.61916 0.930769 0.0
-1.61345 0.209107 0.0
-1.62126 0.248571 0.0
-1.56989 0.196429 0.0
-1.63324 0.553571 0.0
-1.58846 0.535714 0.0
-1.59408 0.361905 0.0
-1.59161 0.402211 0.0
-1.58832 0.464286 0.0
-1.61504 0.598581 0.0
-1.59683 0.64359 0.0
-1.57899 0.274107 0.0
-1.56176 0.322381 0.0
-1.54812 0 0.0
-1.53378 0.0357143 0.0
-1.54593 0.147619 0.0
-1.53385 0.0732143 0.0
-1.53393 0.110714 0.0
-1.58522 0.704286 0.0
-1.58709 0.745 0.0
-1.58896 0.785714 0.0
-1.60695 0.830357 0.0
-1.60707 0.892857 0.0
-1.59993 1 0.0
-1.58454 0.965385 0.0
-1.57135 0.928571 0.0
-1.55209 0.241071 0.0
-1.5291 0.198214 0.0
-1.56936 0.570918 0.0
-1.54369 0.517857 0.0
-1.5464 0.380952 0.0
-1.54564 0.427721 0.0
-1.54488 0.47449 0.0
-1.55026 0.606122 0.0
-1.54222 0.677143 0.0
-1.52943 0.282857 0.0
-1.52143 0.33619 0.0
-1.49792 0 0.0
-1.49802 0.05 0.0
-1.49822 0.15 0.0
-1.49312 0.1 0.0
-1.5423 0.717143 0.0
-1.54419 0.767857 0.0
-1.54727 0.819048 0.0
-1.57122 0.861905 0.0
-1.53553 0.914286 0.0
-1.54992 1 0.0
-1.53563 0.964286 0.0
-1.49842 0.25 0.0
-1.48831 0.2 0.0
-1.5214 0.558929 0.0
-1.49891 0.5 0.0
-1.49871 0.4 0.0
-1.47631 0.45 0.0
-1.49911 0.6 0.0
-1.49921 0.65 0.0
-1.49931 0.7 0.0
-1.48111 0.35 0.0
-1.48351 0.3 0.0
-1.44771 0 0.0
-1.44782 0.05 0.0
-1.44804 0.15 0.0
-1.44793 0.1 0.0
-1.49941 0.75 0.0
-1.49951 0.8 0.0
-1.49981 0.95 0.0
-1.49961 0.85 0.0
-1.49971 0.9 0.0
-1.49991 1 0.0
-1.44826 0.25 0.0
-1.43815 0.2 0.0
-1.47151 0.55 0.0
-1.44881 0.5 0.0
-1.44859 0.4 0.0
-1.42619 0.45 0.0
-1.44913 0.65 0.0
-1.44902 0.6 0.0
-1.44935 0.75 0.0
-1.44924 0.7 0.0
-1.43972 0.35 0.0
-1.43336 0.3 0.0
-1.3975 0 0.0
-1.39762 0.05 0.0
-1.39786 0.15 0.0
-1.39274 0.1 0.0
-1.44957 0.85 0.0
-1.44946 0.8 0.0
-1.4523 0.95 0.0
-1.44968 0.9 0.0
-1.4499 1 0.0
-1.3981 0.25 0.0
-1.38798 0.2 0.0
-1.42141 0.55 0.0
-1.3987 0.5 0.0
-1.39834 0.35 0.0
-1.37845 0.4 0.0
-1.37607 0.45 0.0
-1.40784 0.65 0.0
-1.39894 0.6 0.0
-1.41185 0.75 0.0
-1.39918 0.7 0.0
-1.38322 0.3 0.0
-1.34729 0 0.0
-1.34492 0.05 0.0
-1.34018 0.15 0.0
-1.34255 0.1 0.0
-1.40707 0.85 0.0
-1.39941 0.8 0.0
-1.39977 0.95 0.0
-1.39965 0.9 0.0
-1.39989 1 0.0
-1.33781 0.2 0.0
-1.33544 0.25 0.0
-1.37131 0.55 0.0
-1.34859 0.5 0.0
-1.33833 0.4 0.0
-1.3307 0.35 0.0
-1.32595 0.45 0.0
-1.34885 0.6 0.0
-1.36655 0.65 0.0
-1.36179 0.75 0.0
-1.34911 0.7 0.0
-1.33307 0.3 0.0
-1.29708 0 0.0
-1.29722 0.05 0.0
-1.2975 0.15 0.0
-1.29236 0.1 0.0
-1.35703 0.85 0.0
-1.34937 0.8 0.0
-1.34988 1 0.0
-1.34962 0.9 0.0
-1.35226 0.95 0.0
-1.28528 0.25 0.0
-1.28764 0.2 0.0
-1.28931 0.35 0.0
-1.32121 0.55 0.0
-1.29848 0.5 0.0
-1.28709 0.45 0.0
-1.2982 0.4 0.0
-1.29876 0.6 0.0
-1.31647 0.65 0.0
-1.29918 0.75 0.0
-1.29904 0.7 0.0
-1.28292 0.3 0.0
-1.24687 0 0.0
-1.24702 0.05 0.0
-1.24717 0.1 0.0
-1.24732 0.15 0.0
-1.29946 0.85 0.0
-1.29932 0.8 0.0
-1.29987 1 0.0
-1.29974 0.95 0.0
-1.30462 0.9 0.0
-1.24762 0.25 0.0
-1.23747 0.2 0.0
-1.24792 0.35 0.0
-1.22807 0.4 0.0
-1.27111 0.55 0.0
-1.24837 0.5 0.0
-1.24822 0.45 0.0
-1.24867 0.6 0.0
-1.26639 0.65 0.0
-1.26167 0.75 0.0
-1.24897 0.7 0.0
-1.23277 0.3 0.0
-1.19667 0 0.0
-1.19683 0.05 0.0
-1.18964 0.15 0.0
-1.19198 0.1 0.0
-1.25695 0.85 0.0
-1.24927 0.8 0.0
-1.25223 0.95 0.0
-1.24987 1 0.0
-1.24957 0.9 0.0
-1.1873 0.2 0.0
-1.18496 0.25 0.0
-1.18028 0.35 0.0
-1.17794 0.4 0.0
-1.1981 0.45 0.0
-1.19842 0.55 0.0
-1.19826 0.5 0.0
-1.19858 0.6 0.0
-1.19874 0.65 0.0
-1.19906 0.75 0.0
-1.1989 0.7 0.0
-1.18262 0.3 0.0
-1.14646 0 0.0
-1.14663 0.05 0.0
-1.1418 0.1 0.0
-1.13713 0.2 0.0
-1.14697 0.15 0.0
-1.20691 0.85 0.0
-1.20926 0.8 0.0
-1.20221 0.95 0.0
-1.19986 1 0.0
-1.20456 0.9 0.0
-1.13997 0.3 0.0
-1.14731 0.25 0.0
-1.13781 0.4 0.0
-1.13014 0.35 0.0
-1.12548 0.45 0.0
-1.14815 0.5 0.0
-1.15962 0.55 0.0
-1.14849 0.6 0.0
-1.15745 0.65 0.0
-1.16155 0.75 0.0
-1.14917 0.8 0.0
-1.14883 0.7 0.0
-1.09625 0 0.0
-1.09661 0.1 0.0
-1.09393 0.05 0.0
-1.09697 0.2 0.0
-1.08929 0.15 0.0
-1.15687 0.85 0.0
-1.14985 1 0.0
-1.15219 0.95 0.0
-1.14951 0.9 0.0
-1.09733 0.3 0.0
-1.08465 0.25 0.0
-1.09769 0.4 0.0
-1.08 0.35 0.0
-1.08661 0.45 0.0
-1.09804 0.5 0.0
-1.12082 0.55 0.0
-1.10916 0.8 0.0
-1.10629 0.7 0.0
-1.0984 0.6 0.0
-1.11616 0.65 0.0
-1.11149 0.75 0.0
-1.04604 0 0.0
-1.04623 0.05 0.0
-1.04642 0.1 0.0
-1.0468 0.2 0.0
-1.03911 0.15 0.0
-1.09948 0.9 0.0
-1.0993 0.85 0.0
-1.09984 1 0.0
-1.09966 0.95 0.0
-1.04718 0.3 0.0
-1.03449 0.25 0.0
-1.04756 0.4 0.0
-1.02986 0.35 0.0
-1.04775 0.45 0.0
-1.04794 0.5 0.0
-1.04813 0.55 0.0
-1.05911 0.8 0.0
-1.04831 0.6 0.0
-1.06376 0.7 0.0
-1.0485 0.65 0.0
-1.04888 0.75 0.0
-0.995833 0 0.0
-0.991231 0.1 0.0
-0.996033 0.05 0.0
-0.986629 0.2 0.0
-0.98893 0.15 0.0
-1.05447 0.9 0.0
-1.04926 0.85 0.0
-1.04983 1 0.0
-1.04964 0.95 0.0
-0.984328 0.25 0.0
-0.99703 0.3 0.0
-0.997429 0.4 0.0
-0.997628 0.45 0.0
-0.979726 0.35 0.0
-0.997827 0.5 0.0
-0.998027 0.55 0.0
-0.998226 0.6 0.0
-0.961416 0.475 0.0
-1.00907 0.8 0.0
-0.998426 0.65 0.0
-0.998625 0.7 0.0
-1.01138 0.75 0.0
-0.945625 0 0.0
-0.946044 0.1 0.0
-0.943334 0.05 0.0
-0.946463 0.2 0.0
-0.938752 0.15 0.0
-1.00444 0.9 0.0
-1.00675 0.85 0.0
-0.999821 1 0.0
-1.00213 0.95 0.0
-0.93417 0.25 0.0
-0.946881 0.3 0.0
-0.9473 0.4 0.0
-0.929588 0.35 0.0
-0.925005 0.45 0.0
-0.960371 0.525 0.0
-0.959325 0.575 0.0
-0.958279 0.625 0.0
-0.922714 0.5 0.0
-0.959017 0.8 0.0
-0.957233 0.675 0.0
-0.952999 0.7125 0.0
-0.948766 0.75 0.0
-0.895417 0 0.0
-0.895855 0.1 0.0
-0.893136 0.05 0.0
-0.896294 0.2 0.0
-0.888573 0.15 0.0
-0.949184 0.85 0.0
-0.954415 0.9 0.0
-0.949812 1 0.0
-0.949603 0.95 0.0
-0.884011 0.25 0.0
-0.896733 0.3 0.0
-0.874887 0.45 0.0
-0.879449 0.35 0.0
-0.897171 0.4 0.0
-0.920423 0.55 0.0
-0.918132 0.6 0.0
-0.915841 0.65 0.0
-0.872606 0.5 0.0
-0.908968 0.8 0.0
-0.91355 0.7 0.0
-0.898707 0.75 0.0
-0.845208 0 0.0
-0.845438 0.05 0.0
-0.845667 0.1 0.0
-0.845896 0.15 0.0
-0.833853 0.25 0.0
-0.846126 0.2 0.0
-0.899146 0.85 0.0
-0.904386 0.9 0.0
-0.899584 0.95 0.0
-0.899804 1 0.0
-0.838062 0.35 0.0
[...]
POINT_DATA 10839
VECTORS Velocity float
0.21 0 0.0
0.24 0 0.0
0.2275 0 0.0
0.2475 0 0.0
0.25 0 0.0
0.2475 0 0.0
0 0 0.0
0.0475 0 0.0
0.1275 0 0.0
0.09 0 0.0
0.09 0 0.0
0.1275 0 0.0
0.1875 0 0.0
0.16 0 0.0
0.195557 -2.1786e-05 0.0
0.242841 -2.93474e-05 0.0
0.215776 -2.58288e-05 0.0
0.231406 -2.89992e-05 0.0
0.248725 -3.10921e-05 0.0
0.24 0 0.0
0.24284 -2.89114e-05 0.0
0.24852 -2.98088e-05 0.0
0 0 0.0
0.0622238 -3.89668e-06 0.0
0.0322266 -2.57007e-06 0.0
0.16 0 0.0
0.1875 0 0.0
0.21 0 0.0
0.2275 0 0.0
0.193592 -2.38902e-05 0.0
0.138887 -1.34701e-05 0.0
0 0 0.0
0.0475 0 0.0
0.0998417 -9.48653e-06 0.0
0.0622207 -3.94184e-06 0.0
0.099846 -1.00035e-05 0.0
0.13889 -1.3817e-05 0.0
0.174379 -3.43363e-05 0.0
0.201605 -4.68177e-05 0.0
0.235787 -5.66865e-05 0.0
0.244084 -5.90764e-05 0.0
0.223601 -7.6074e-05 0.0
0.249751 -6.13441e-05 0.0
0.249044 -6.8012e-05 0.0
0.231404 -2.89175e-05 0.0
0.244081 -5.76102e-05 0.0
0 0 0.0
0.0361069 -4.90969e-06 0.0
0.0736115 -1.36836e-05 0.0
0.0622467 -1.49246e-05 0.0
0.174371 -3.3029e-05 0.0
0.220162 -4.5575e-05 0.0
0.201595 -4.56636e-05 0.0
0.115549 -2.01228e-05 0.0
0.146677 -3.08215e-05 0.0
0 0 0.0
0.0360879 -3.34862e-06 0.0
0.0693669 -1.07014e-05 0.0
0.0899853 -2.09058e-05 0.0
0.10939 -2.85571e-05 0.0
0.146691 -3.08959e-05 0.0
0.178901 -5.734e-05 0.0
0.206292 -7.46515e-05 0.0
0.214498 -0.00010025 0.0
0.238526 -8.84596e-05 0.0
0.247349 -9.15754e-05 0.0
0.229605 -0.000112711 0.0
0.226324 -7.77734e-05 0.0
0.249982 -9.14604e-05 0.0
0.246426 -8.85401e-05 0.0
0.236681 -8.30964e-05 0.0
0 0 0.0
0.0322481 -5.52531e-06 0.0
0.0956934 -3.22977e-05 0.0
0.0694241 -2.43111e-05 0.0
0.178878 -5.48284e-05 0.0
0.20627 -7.29085e-05 0.0
0.127479 -4.25376e-05 0.0
0.165877 -6.89184e-05 0.0
0.152328 -4.98389e-05 0.0
0 0 0.0
0.0360807 -4.76205e-06 0.0
0.0621985 -1.46604e-05 0.0
0.095634 -3.23133e-05 0.0
0.127522 -4.40123e-05 0.0
0.156658 -6.37941e-05 0.0
0.115596 -5.03725e-05 0.0
0.193622 -0.000104675 0.0
0.218137 -0.00013193 0.0
0.240938 -0.000119467 0.0
0.247736 -0.000123185 0.0
0.249999 -0.000123774 0.0
0.234394 -0.000151828 0.0
0.229578 -0.000107852 0.0
0.247727 -0.000121483 0.0
0.24092 -0.000116643 0.0
0 0 0.0
0.0344828 -7.63965e-06 0.0
0.103114 -4.93948e-05 0.0
0.0622951 -2.46369e-05 0.0
0.18973 -8.58412e-05 0.0
0.212993 -0.00011892 0.0
0.170541 -9.24452e-05 0.0
0.144336 -6.90882e-05 0.0
0 0 0.0
0.0399011 -8.07816e-06 0.0
0.0997938 -4.38034e-05 0.0
0.0693274 -2.34874e-05 0.0
0.170619 -9.65801e-05 0.0
0.144416 -7.32274e-05 0.0
0.124369 -7.40787e-05 0.0
0.183643 -0.000121935 0.0
0.204125 -0.000145722 0.0
0.222032 -0.000170926 0.0
0.249108 -0.000160906 0.0
0.244023 -0.000159203 0.0
0.249117 -0.000162368 0.0
0.238545 -0.000192612 0.0
0.234355 -0.000145808 0.0
0.244883 -0.000168149 0.0
0 0 0.0
0.0322854 -8.10218e-06 0.0
0.094064 -5.18485e-05 0.0
0.0652053 -3.10467e-05 0.0
0.196703 -0.000126573 0.0
0.217877 -0.000154973 0.0
0.17745 -0.00012762 0.0
0.148701 -9.02471e-05 0.0
0.120339 -6.38194e-05 0.0
0 0 0.0
0.0343955 -7.62341e-06 0.0
0.0716546 -3.03892e-05 0.0
0.152416 -0.000105909 0.0
0.127603 -9.18185e-05 0.0
0.187569 -0.000151239 0.0
0.211942 -0.000188057 0.0
0.248604 -0.000198044 0.0
0.225676 -0.000212257 0.0
0.249779 -0.000201597 0.0
0.246469 -0.000199951 0.0
0.242055 -0.000235205 0.0
0.238492 -0.000184761 0.0
0 0 0.0
0.0338647 -1.00785e-05 0.0
0.0999773 -6.88108e-05 0.0
0.0695268 -4.06651e-05 0.0
0.206271 -0.000165007 0.0
0.222413 -0.000192056 0.0
0.189993 -0.000169666 0.0
0.168273 -0.000138259 0.0
0.143022 -0.000107205 0.0
0.124209 -8.00343e-05 0.0
0.0970988 -5.42716e-05 0.0
0 0 0.0
0.0360286 -9.59254e-06 0.0
0.0673307 -3.244e-05 0.0
0.130318 -0.000110665 0.0
0.16847 -0.000148833 0.0
0.199461 -0.000194459 0.0
0.218366 -0.000227752 0.0
0.241993 -0.000225894 0.0
0.249994 -0.000240709 0.0
0.247986 -0.000235257 0.0
0.229068 -0.000256054 0.0
0.244925 -0.000279068 0.0
0.248732 -0.000254732 0.0
0.23445 -0.000228603 0.0
0 0 0.0
0.0362181 -1.25305e-05 0.0
0.122637 -0.000112321 0.0
0.0712039 -4.63847e-05 0.0
0.208365 -0.00019862 0.0
0.225137 -0.000235433 0.0
0.198071 -0.000203839 0.0
0.177751 -0.000170453 0.0
0.146552 -0.000127826 0.0
0.119157 -9.07752e-05 0.0
0.0970711 -6.13484e-05 0.0
0 0 0.0
0.0349501 -1.07761e-05 0.0
0.0672987 -3.6719e-05 0.0
0.152283 -0.000155265 0.0
0.178002 -0.000190917 0.0
0.210101 -0.000241769 0.0
0.244857 -0.000266433 0.0
0.249413 -0.000277921 0.0
0.232207 -0.000302334 0.0
0.244178 -0.000318863 0.0
0.249974 -0.000328949 0.0
0.249119 -0.000296982 0.0
0.235918 -0.000269615 0.0
0.212943 -0.00029926 0.0
0 0 0.0
0.0371402 -1.3648e-05 0.0
0.141088 -0.000156967 0.0
0.0999265 -8.96921e-05 0.0
0.0665659 -4.1961e-05 0.0
0.213648 -0.000237115 0.0
0.18664 -0.000205869 0.0
0.16512 -0.000170098 0.0
0.122275 -0.000108734 0.0
0.092895 -6.79239e-05 0.0
0 0 0.0
0.0349237 -1.23248e-05 0.0
0.0642539 -4.04523e-05 0.0
0.165578 -0.000200203 0.0
0.18695 -0.000237121 0.0
0.158103 -0.000209056 0.0
0.247084 -0.000309833 0.0
0.248675 -0.000356013 0.0
0.231027 -0.000343916 0.0
0.240499 -0.000361654 0.0
0.248732 -0.000369874 0.0
0.240204 -0.000307821 0.0
0.229269 -0.000295504 0.0
0.199161 -0.000295927 0.0
0.218607 -0.000355143 0.0
0 0 0.0
0.0346191 -1.14944e-05 0.0
0.126142 -0.000146745 0.0
0.0681347 -4.36362e-05 0.0
0.0987814 -9.18452e-05 0.0
0.208115 -0.000262661 0.0
0.189802 -0.000230746 0.0
0.168175 -0.000195552 0.0
0.140665 -0.000146742 0.0
0.0954482 -8.26189e-05 0.0
0 0 0.0
0.0332695 -1.35285e-05 0.0
0.0660898 -5.12832e-05 0.0
0.183203 -0.000280394 0.0
0.159243 -0.000235872 0.0
0.244888 -0.000357296 0.0
0.24963 -0.00040407 0.0
0.235925 -0.000405802 0.0
0.244819 -0.000417672 0.0
0.249341 -0.00041654 0.0
0.23862 -0.000351076 0.0
0.218451 -0.000306924 0.0
0.20308 -0.000353679 0.0
0.223335 -0.000413128 0.0
0 0 0.0
0.0477554 -2.00033e-05 0.0
0.127896 -0.000164312 0.0
0.0903752 -7.81925e-05 0.0
0.202656 -0.000274145 0.0
0.178031 -0.000230939 0.0
0.147958 -0.00018332 0.0
0.118776 -0.000127197 0.0
0.0780731 -7.83133e-05 0.0
0 0 0.0
0.0342477 -1.78868e-05 0.0
0.187814 -0.000343021 0.0
0.160388 -0.000266816 0.0
0.246427 -0.00040412 0.0
0.249949 -0.00045718 0.0
0.240086 -0.000472704 0.0
0.24751 -0.000502264 0.0
0.239849 -0.000391568 0.0
0.227312 -0.000350567 0.0
0.209782 -0.00030694 0.0
0.227676 -0.000478621 0.0
0.210259 -0.000428698 0.0
0 0 0.0
0.0477927 -1.75179e-05 0.0
0.128001 -0.000181683 0.0
0.0904476 -7.88934e-05 0.0
0.187251 -0.000264697 0.0
0.159717 -0.000220624 0.0
0.0472197 -3.82902e-05 0.0
0.127179 -0.000170497 0.0
0.0896537 -0.000109689 0.0
0 0 0.0
0.187898 -0.000402395 0.0
0.160496 -0.000309205 0.0
0.247374 -0.00045343 0.0
0.24992 -0.000513997 0.0
0.240095 -0.000547202 0.0
0.247491 -0.000574043 0.0
0.227267 -0.000372418 0.0
0.239804 -0.000423451 0.0
0.187209 -0.000278752 0.0
0.209736 -0.000322604 0.0
0.227704 -0.000543154 0.0
0.210321 -0.00050651 0.0
0 0 0.0
0.047828 -1.54927e-05 0.0
0.12813 -0.000208168 0.0
0.0905495 -8.41734e-05 0.0
0.127125 -0.000193399 0.0
0.159673 -0.000237981 0.0
0.047151 -4.74994e-05 0.0
0.0895801 -0.000130062 0.0
0 0 0.0
0.188 -0.000479061 0.0
0.160629 -0.000367449 0.0
0.247327 -0.00049639 0.0
0.249877 -0.000574047 0.0
0.227729 -0.000621154 0.0
0.240094 -0.00067499 0.0
0.24746 -0.00065603 0.0
0.22722 -0.000382902 0.0
0.239745 -0.000449212 0.0
0.187178 -0.000281254 0.0
0.209687 -0.000325162 0.0
0.21039 -0.000604238 0.0
0 0 0.0
0.0478694 -1.58078e-05 0.0
0.128316 -0.000262606 0.0
0.0906638 -0.000101285 0.0
0.127083 -0.000206874 0.0
0.159636 -0.000245254 0.0
0.0470612 -5.74633e-05 0.0
0.0895009 -0.000148938 0.0
0 0 0.0
0.160792 -0.000451389 0.0
0.188154 -0.000610301 0.0
0.247261 -0.00053809 0.0
0.249813 -0.000639245 0.0
0.240081 -0.000766762 0.0
0.22777 -0.000781855 0.0
0.247408 -0.000749547 0.0
0.239667 -0.000465764 0.0
0.227166 -0.000384246 0.0
0.187139 -0.000268946 0.0
0.209631 -0.000309644 0.0
0.210467 -0.000733344 0.0
0 0 0.0
0.0479186 -2.22807e-05 0.0
0.128485 -0.000331677 0.0
0.0908102 -0.000140373 0.0
0.127043 -0.000210619 0.0
0.159609 -0.000234084 0.0
0 0 0.0
0.0894218 -0.000158789 0.0
0.046968 -6.46697e-05 0.0
0.188299 -0.000765807 0.0
0.160985 -0.000575072 0.0
0.227785 -0.000910926 0.0
0.247171 -0.00057689 0.0
0.24972 -0.000710227 0.0
0.247347 -0.000833429 0.0
0.240056 -0.000872366 0.0
0.239562 -0.000470296 0.0
0.227083 -0.000369231 0.0
0.187095 -0.000214908 0.0
0.209564 -0.000268124 0.0
0.210548 -0.000895798 0.0
0 0 0.0
0.047996 -4.1525e-05 0.0
0.0909852 -0.000201885 0.0
0.128724 -0.000455777 0.0
0.127015 -0.000181683 0.0
0.159593 -0.000191394 0.0
0 0 0.0
0.0468627 -6.70857e-05 0.0
0.0893604 -0.000150789 0.0
0.18842 -0.000913069 0.0
0.161214 -0.000755967 0.0
0.227784 -0.00106634 0.0
0.23997 -0.00110151 0.0
0.247045 -0.000611873 0.0
0.249588 -0.000785945 0.0
0.247266 -0.000928469 0.0
0.239422 -0.000459516 0.0
0.226975 -0.00033014 0.0
0.187063 -0.000151745 0.0
0.20948 -0.000192249 0.0
0.210626 -0.00110743 0.0
0 0 0.0
0.0481243 -7.03608e-05 0.0
0.129081 -0.000678675 0.0
0.0912859 -0.000327821 0.0
0.127011 -0.000126072 0.0
0.159589 -0.000103909 0.0
0.0467784 -6.01578e-05 0.0
0 0 0.0
0.0893142 -0.000111266 0.0
0.161474 -0.00100689 0.0
0.188634 -0.00123893 0.0
0.227756 -0.00138262 0.0
0.239856 -0.0013077 0.0
0.247115 -0.00107318 0.0
0.246782 -0.000652055 0.0
0.249405 -0.000873392 0.0
0.239234 -0.000429092 0.0
0.226775 -0.00023019 0.0
0.187008 1.83963e-05 0.0
0.20937 -7.14707e-05 0.0
0.210693 -0.00137928 0.0
0 0 0.0
0.0483257 -0.000118021 0.0
0.0916642 -0.000485724 0.0
0.16177 -0.00133451 0.0
0.129395 -0.000903341 0.0
0.127036 -8.11531e-06 0.0
0.159587 8.85776e-06 0.0
0.0467187 -4.02265e-05 0.0
0 0 0.0
0.0893114 -5.04533e-05 0.0
0.210732 -0.00165821 0.0
0.188757 -0.00149487 0.0
0.239727 -0.00150347 0.0
0.227676 -0.00168968 0.0
0.246796 -0.00131593 0.0
0.249157 -0.000967251 0.0
0.246578 -0.000668655 0.0
0.238984 -0.000377619 0.0
0.2266 -0.000136826 0.0
0.186951 0.000166055 0.0
0.159606 0.000264261 0.0
0.209222 9.93066e-05 0.0
0 0 0.0
0.0921407 -0.000677711 0.0
0.0486466 -0.000178963 0.0
0.162032 -0.00167016 0.0
0.129942 -0.00129696 0.0
0.127103 0.000176578 0.0
0 0 0.0
0.0467102 -1.00377e-05 0.0
0.0893998 7.43348e-05 0.0
0.21075 -0.0019859 0.0
0.188971 -0.00202834 0.0
0.239552 -0.00171758 0.0
0.227551 -0.00205219 0.0
0.246538 -0.00147683 0.0
0.248822 -0.00107344 0.0
0.246337 -0.000682679 0.0
0.159611 0.000492732 0.0
0.209053 0.000288615 0.0
0.238652 -0.000303755 0.0
0.226383 -1.68211e-05 0.0
0.186855 0.000426204 0.0
0 0 0.0
0.0490607 -0.000246915 0.0
0.0928045 -0.000931922 0.0
0.16239 -0.00215765 0.0
0.13053 -0.00171715 0.0
0.0895968 0.000239852 0.0
0.127248 0.000468987 0.0
0 0 0.0
0.0467876 4.28383e-05 0.0
0.210722 -0.00244892 0.0
0.189114 -0.00254898 0.0
0.23926 -0.0020347 0.0
0.227349 -0.00247147 0.0
0.246244 -0.00165234 0.0
0.2484 -0.00119144 0.0
0.245733 -0.00069302 0.0
0.159636 0.000857354 0.0
0.238233 -0.00020715 0.0
0.208838 0.00051728 0.0
0.225918 0.000242152 0.0
0.186685 0.000851102 0.0
0 0 0.0
0.0937909 -0.00124922 0.0
0.0496766 -0.000345511 0.0
0.162887 -0.00285652 0.0
0.131271 -0.00220259 0.0
0.0898883 0.000430162 0.0
0.127463 0.000788542 0.0
0 0 0.0
0.0469491 9.55256e-05 0.0
0.189243 -0.00315299 0.0
0.210644 -0.00298662 0.0
0.238871 -0.00240196 0.0
0.245758 -0.00190489 0.0
0.227062 -0.00295283 0.0
0.247853 -0.00132309 0.0
0.245162 -0.000702527 0.0
0.237695 -9.38103e-05 0.0
0.246945 -0.00177712 0.0
0.159656 0.00128623 0.0
0.225439 0.000476236 0.0
0.208388 0.000946902 0.0
0.186527 0.0011557 0.0
0 0 0.0
0.0947999 -0.00153948 0.0
0.0504672 -0.000447139 0.0
0.163248 -0.00337737 0.0
0.13217 -0.00273746 0.0
0.09036 0.000659053 0.0
0.127716 0.00110843 0.0
0 0 0.0
0.0472404 0.00015861 0.0
0.189346 -0.00382969 0.0
0.210491 -0.00359704 0.0
0.238363 -0.00280551 0.0
0.226678 -0.00349744 0.0
0.244821 -0.00233149 0.0
0.246602 -0.00107352 0.0
0.241508 -0.000343466 0.0
0.231671 0.000361212 0.0
0.246786 -0.0015505 0.0
0.159704 0.00177741 0.0
0.217083 0.000995938 0.0
0.202989 0.00141718 0.0
0.186221 0.00173835 0.0
0 0 0.0
0.0961505 -0.00188059 0.0
0.0514285 -0.000551197 0.0
0.163784 -0.00407774 0.0
0.133251 -0.00330305 0.0
0.128214 0.00158739 0.0
0.09102 0.000910557 0.0
0 0 0.0
0.0477229 0.000240352 0.0
0.189428 -0.00457042 0.0
0.210266 -0.00427206 0.0
0.244006 -0.00265629 0.0
0.226181 -0.00409391 0.0
0.237739 -0.0032651 0.0
0.244025 -0.00071852 0.0
0.236558 0.000128094 0.0
0.224394 0.000927886 0.0
0.24588 -0.00172649 0.0
0.159761 0.00229569 0.0
0.20753 0.00162696 0.0
0.185886 0.00224777 0.0
0 0 0.0
0.052516 -0.000652315 0.0
0.0977327 -0.00221862 0.0
0.134346 -0.0037937 0.0
0.189505 -0.00535546 0.0
0.164395 -0.00480799 0.0
0.128777 0.00202437 0.0
0.0918591 0.00116748 0.0
0.048286 0.000324057 0.0
0 0 0.0
0.225684 -0.00463105 0.0
0.209963 -0.00500454 0.0
0.24326 -0.00293721 0.0
0.236966 -0.0037682 0.0
0.223576 0.00123216 0.0
0.243092 -0.000729622 0.0
0.235651 0.000277238 0.0
0.244812 -0.00192381 0.0
0.185514 0.00278125 0.0
0.159905 0.00294276 0.0
0.206665 0.00219982 0.0
0 0 0.0
0.053874 -0.000752027 0.0
0.0997796 -0.00256329 0.0
0.135825 -0.00437573 0.0
0.189559 -0.00598425 0.0
0.165298 -0.00571534 0.0
0.1295 0.00244892 0.0
0.0930129 0.00144519 0.0
0.0490301 0.000402161 0.0
0 0 0.0
0.130411 0.00284842 0.0
0.225106 -0.00519048 0.0
0.20946 -0.00603101 0.0
0.235654 -0.00454779 0.0
0.242421 -0.00323577 0.0
0.22223 0.00166322 0.0
0.234577 0.000431042 0.0
0.241985 -0.000755856 0.0
0.243559 -0.00214993 0.0
0.185092 0.00332796 0.0
0.160083 0.00345597 0.0
0.205846 0.00264697 0.0
0 0 0.0
0.055385 -0.000834539 0.0
0.101916 -0.00286843 0.0
0.13752 -0.00492318 0.0
0.189657 -0.00681612 0.0
0.166187 -0.00645886 0.0
0.049852 0.000460141 0.0
0.0942472 0.00165305 0.0
0 0 0.0
0.131276 0.00314442 0.0
0.224293 -0.00591891 0.0
0.208992 -0.00686168 0.0
0.234518 -0.00515031 0.0
0.241177 -0.00366244 0.0
0.221253 0.00191237 0.0
0.233333 0.000576291 0.0
0.242126 -0.00240246 0.0
0.240068 -0.00082284 0.0
0.184749 0.00371657 0.0
0.160345 0.00391658 0.0
0.204931 0.0030932 0.0
0 0 0.0
0.0570838 -0.000924397 0.0
0.104269 -0.00314527 0.0
0.139761 -0.00551325 0.0
0.189849 -0.0078727 0.0
0.208479 -0.00772067 0.0
0.167256 -0.00717848 0.0
0.0507922 0.00050679 0.0
0.0956424 0.00181802 0.0
0 0 0.0
0.132463 0.00341199 0.0
0.22302 -0.00695739 0.0
0.233502 -0.00567023 0.0
0.239762 -0.00412203 0.0
0.240917 -0.00261983 0.0
0.220184 0.00216296 0.0
0.231892 0.000692798 0.0
0.238493 -0.000895878 0.0
0.160734 0.00431181 0.0
0.1843 0.00418908 0.0
0.203909 0.00350914 0.0
0 0 0.0
0.0589573 -0.00102396 0.0
0.106851 -0.00338382 0.0
0.141986 -0.0059699 0.0
0.190018 -0.00849685 0.0
0.207941 -0.00858929 0.0
0.168516 -0.00786082 0.0
0.0518283 0.000528372 0.0
0.0971905 0.00193258 0.0
0 0 0.0
0.161099 0.00455609 0.0
0.098818 0.00199031 0.0
0.133982 0.00359502 0.0
0.221932 -0.00778731 0.0
0.232381 -0.00620333 0.0
0.237377 -0.00485837 0.0
0.239604 -0.0028502 0.0
0.237149 -0.000979953 0.0
0.218745 0.00244231 0.0
0.229584 0.000829647 0.0
0.183761 0.00468719 0.0
0.202973 0.00382203 0.0
0.220979 -0.00846866 0.0
0 0 0.0
0.0608884 -0.0010791 0.0
0.144466 -0.0063555 0.0
0.109597 -0.00358617 0.0
0.207407 -0.00946716 0.0
0.190447 -0.00949845 0.0
0.169977 -0.00847991 0.0
0.0529907 0.000547529 0.0
0 0 0.0
0.183471 0.00489019 0.0
0.161712 0.00474844 0.0
0.13549 0.00360812 0.0
0.0539701 0.000555207 0.0
0.100501 0.00195071 0.0
0.230863 -0.00691152 0.0
0.235936 -0.00529307 0.0
0.237671 -0.00319835 0.0
0.236091 -0.00349283 0.0
0.235675 -0.00107642 0.0
0.21715 0.00266228 0.0
0.22769 0.000874634 0.0
0.202007 0.00408641 0.0
0.21997 -0.00916566 0.0
0.0627751 -0.00113095 0.0
0 0 0.0
0.146704 -0.00663191 0.0
0.112479 -0.0037362 0.0
0.206906 -0.0103218 0.0
0.190817 -0.0100634 0.0
0.171677 -0.00903377 0.0
0 0 0.0
0.18317 0.00506969 0.0
0.162597 0.00475997 0.0
0.136786 0.00353072 0.0
0.0549797 0.000507038 0.0
0.102127 0.00184015 0.0
0.228469 -0.00796793 0.0
0.234398 -0.00574305 0.0
0.234401 -0.00380506 0.0
0.232609 -0.00132486 0.0
0.21545 0.00282698 0.0
0.225648 0.000865842 0.0
0.20049 0.00434359 0.0
0.218715 -0.0100209 0.0
0 0 0.0
0.0649034 -0.00115335 0.0
0.149532 -0.0068934 0.0
0.115193 -0.00384195 0.0
0.173586 -0.00949456 0.0
0.206476 -0.011153 0.0
0.19164 -0.0109151 0.0
0 0 0.0
0 0 0.0
0.182972 0.00505168 0.0
0.163541 0.00455671 0.0
0.138394 0.00328495 0.0
0.103683 0.00164348 0.0
0.0559135 0.000433901 0.0
0.226623 -0.00874977 0.0
0.232246 -0.00636975 0.0
0.223887 0.000810035 0.0
0.231985 -0.00427046 0.0
0.230248 -0.00158389 0.0
0.213649 0.00288225 0.0
0.199339 0.00437786 0.0
0.225057 -0.00939125 0.0
0.217429 -0.0108602 0.0
0.067114 -0.0011885 0.0
0.118274 -0.00392789 0.0
0.152547 -0.00711053 0.0
0.175328 -0.0098149 0.0
0.206156 -0.0119185 0.0
0.192293 -0.0113923 0.0
0 0 0.0
0 0 0.0
0.164312 0.00426272 0.0
0.182902 0.0047531 0.0
0.104926 0.00140436 0.0
0.140173 0.00282924 0.0
0.05668 0.000352431 0.0
0.228853 -0.00732711 0.0
0.229384 -0.00480448 0.0
0.198259 0.00421761 0.0
0.22205 0.000693334 0.0
0.228311 -0.00183933 0.0
0.211134 0.00275107 0.0
0.223469 -0.0100143 0.0
0.215745 -0.0119395 0.0
0.205953 -0.012622 0.0
0.0693801 -0.00125561 0.0
0.121442 -0.00401244 0.0
0.156149 -0.00731802 0.0
0.177616 -0.0101407 0.0
0.193615 -0.0120645 0.0
0 0 0.0
0 0 0.0
0.165581 0.00356877 0.0
0.183035 0.00422638 0.0
0.106243 0.00102285 0.0
0.141628 0.00228175 0.0
0.0573481 0.000259709 0.0
0.226271 -0.00214389 0.0
0.226647 -0.0053996 0.0
0.226358 -0.00804545 0.0
0.197286 0.00384287 0.0
0.219676 0.000416766 0.0
0.209271 0.00243047 0.0
0.183283 0.00345155 0.0
0.220616 -0.0110947 0.0
0 0 0.0
0.214536 -0.0127094 0.0
0.194927 -0.012531 0.0
0.205893 -0.01326 0.0
0.0715357 -0.00129331 0.0
0.158975 -0.00746397 0.0
0.124981 -0.00415843 0.0
0.180631 -0.0105202 0.0
0 0 0.0
0 0 0.0
0 0 0.0
0 0 0.0
0 0 0.0
0.0577529 0.000153547 0.0
0.142914 0.00160042 0.0
0.166677 0.00275782 0.0
0.107084 0.000677297 0.0
0.223537 -0.00262499 0.0
0.223814 -0.00608054 0.0
0.223775 -0.00880478 0.0
0.207762 0.00200902 0.0
0.196422 0.00319921 0.0
0.216228 -0.000229853 0.0
0.195811 0.00244243 0.0
0.183504 0.00272807 0.0
0.218583 -0.0118804 0.0
0.213414 -0.0134178 0.0
0 0 0.0
-8.17559e-06 3.36254e-05 0.0
0 0 0.0
-0.000673784 0.00595648 0.0
0.205994 -0.0138532 0.0
0.196011 -0.0128646 0.0
0.073997 -0.00137176 0.0
0.162279 -0.00768642 0.0
0.128268 -0.00436104 0.0
0.183318 -0.0108689 0.0
0 0 0.0
0 0 0.0
0 0 0.0
-0.00057761 0.00397987 0.0
-0.000240591 0.000435424 0.0
-0.000491114 0.000476499 0.0
0 0 0.0
0.0579192 2.69107e-05 0.0
0.14378 0.000975368 0.0
0.167657 0.0017917 0.0
0.107699 0.000232346 0.0
0.220745 -0.00325994 0.0
0.220928 -0.00685166 0.0
0.22116 -0.00958568 0.0
0.20634 0.00142678 0.0
0.214295 -0.000788997 0.0
0.195264 0.00152103 0.0
0.183878 0.00126093 0.0
0.216602 -0.0126538 0.0
0.213744 -0.0137862 0.0
0.209608 -0.0143347 0.0
0 0 0.0
-0.000417399 0.000223577 0.0
0 0 0.0
0 0 0.0
-0.00223804 0.0116345 0.0
-0.00249561 0.00872016 0.0
0.204246 -0.014247 0.0
0.197537 -0.0133559 0.0
0.131294 -0.00463245 0.0
0.076385 -0.0015081 0.0
0.16565 -0.00804186 0.0
0.18601 -0.0113098 0.0
0 0 0.0
-0.00136142 0.00291526 0.0
-0.00200273 0.00553648 0.0
-0.00130024 0.00171096 0.0
-0.00176085 0.00124561 0.0
0 0 0.0
0.0578947 -9.23384e-05 0.0
0.144507 0.000186411 0.0
0.168458 0.000714516 0.0
0.107916 -0.000190973 0.0
0.217922 -0.00403354 0.0
0.218073 -0.00772293 0.0
0.218568 -0.010414 0.0
0.204137 8.25322e-05 0.0
0.21237 -0.00147114 0.0
0.194725 0.000214086 0.0
0.169069 -0.000451207 0.0
0.18419 -9.61976e-05 0.0
0.215084 -0.0132776 0.0
0.211782 -0.0145926 0.0
0.206413 -0.0149224 0.0
0 0 0.0
-0.00168033 0.000515181 0.0
0 0 0.0
0 0 0.0
0 0 0.0
0 0 0.0
-0.00491084 0.00902879 0.0
-0.000515829 0.00917012 0.0
-0.0020833 0.0139477 0.0
-0.00506915 0.0175342 0.0
-0.00478469 0.0132427 0.0
0 0 0.0
7.07303e-05 0.01089 0.0
0.199519 -0.0141363 0.0
0.188226 -0.0118088 0.0
0 0 0.0
0.0792869 -0.00175079 0.0
0.134832 -0.0050712 0.0
0.1696 -0.00879678 0.0
0 0 0.0
0 0 0.0
-0.00363913 0.00534001 0.0
-0.00353313 0.00331885 0.0
-0.00400908 0.00203348 0.0
0 0 0.0
0.0576092 -0.000215398 0.0
0.144888 -0.000734558 0.0
0.107735 -0.0005985 0.0
0.169263 -0.00135899 0.0
0.215171 -0.00497507 0.0
0.21598 -0.00844214 0.0
0.216042 -0.011311 0.0
0.202925 -0.00094252 0.0