# vtk DataFile Version 3.0
Mesh NS-CD Problem
ASCII
DATASET UNSTRUCTURED_GRID
POINTS 10839 float
-2 0.3 0.0
-2 0.4 0.0
-2 0.35 0.0
-2 0.45 0.0
-2 0.5 0.0
-2 0.55 0.0
-2 0 0.0
-2 0.05 0.0
-2 0.85 0.0
-2 0.9 0.0
-2 0.1 0.0
-2 0.15 0.0
-2 0.25 0.0
-2 0.2 0.0
-1.96653 0.266667 0.0
-1.96524 0.415385 0.0
-1.96485 0.315 0.0
-1.96348 0.363636 0.0
-1.96414 0.464286 0.0
-2 0.6 0.0
-1.96538 0.584615 0.0
-1.96538 0.538462 0.0
-1.94979 0 0.0
-1.96653 0.0666666 0.0
-1.93306 0.0333333 0.0
-2 0.8 0.0
-2 0.75 0.0
-2 0.7 0.0
-2 0.65 0.0
-1.96249 0.7375 0.0
-1.96666 0.833333 0.0
-2 1 0.0
-2 0.95 0.0
-1.96249 0.8875 0.0
-1.96666 0.933333 0.0
-1.96234 0.1125 0.0
-1.96653 0.166667 0.0
-1.93724 0.225 0.0
-1.92971 0.28 0.0
-1.93048 0.380769 0.0
-1.93048 0.423077 0.0
-1.89958 0.3375 0.0
-1.9292 0.484203 0.0
-1.92117 0.530907 0.0
-1.96363 0.636364 0.0
-1.93076 0.576923 0.0
-1.89958 0 0.0
-1.88703 0.0375 0.0
-1.90963 0.08 0.0
-1.86611 0.0666666 0.0
-1.93749 0.775 0.0
-1.93635 0.672727 0.0
-1.92999 0.72 0.0
-1.93332 0.866667 0.0
-1.92856 0.821429 0.0
-1.94999 1 0.0
-1.92499 0.9625 0.0
-1.92499 0.925 0.0
-1.89998 0.9 0.0
-1.89958 0.125 0.0
-1.92827 0.178571 0.0
-1.89958 0.233333 0.0
-1.89045 0.290909 0.0
-1.86096 0.311538 0.0
-1.89241 0.392857 0.0
-1.89334 0.448489 0.0
-1.85655 0.357143 0.0
-1.89614 0.653846 0.0
-1.89427 0.504121 0.0
-1.8952 0.559753 0.0
-1.89614 0.615385 0.0
-1.84937 0 0.0
-1.83264 0.0333333 0.0
-1.85655 0.107143 0.0
-1.81172 0.075 0.0
-1.89998 0.766667 0.0
-1.89089 0.709091 0.0
-1.87498 0.85 0.0
-1.85998 0.79 0.0
-1.88748 0.8125 0.0
-1.89998 1 0.0
-1.88748 0.9625 0.0
-1.86664 0.933333 0.0
-1.85712 0.892857 0.0
-1.87448 0.15 0.0
-1.86611 0.194444 0.0
-1.83264 0.133333 0.0
-1.83264 0.2625 0.0
-1.82068 0.321429 0.0
-1.85664 0.404762 0.0
-1.85674 0.452381 0.0
-1.85683 0.5 0.0
-1.81184 0.375 0.0
-1.85712 0.642857 0.0
-1.85693 0.547619 0.0
-1.85702 0.595238 0.0
-1.79917 0 0.0
-1.78482 0.0357143 0.0
-1.79917 0.116667 0.0
-1.76569 0.0666666 0.0
-1.85452 0.745455 0.0
-1.82689 0.692308 0.0
-1.81815 0.781818 0.0
-1.82497 0.825 0.0
-1.84997 1 0.0
-1.8333 0.958333 0.0
-1.81247 0.8875 0.0
-1.81247 0.925 0.0
-1.81742 0.218182 0.0
-1.82427 0.175 0.0
-1.77634 0.145455 0.0
-1.79144 0.242308 0.0
-1.78482 0.285714 0.0
-1.77469 0.332653 0.0
-1.81215 0.529762 0.0
-1.81194 0.422619 0.0
-1.81203 0.470238 0.0
-1.76714 0.392857 0.0
-1.81234 0.625 0.0
-1.79732 0.571429 0.0
-1.74896 0 0.0
-1.73222 0.0333333 0.0
-1.75398 0.105 0.0
-1.71883 0.07 0.0
-1.79227 0.730769 0.0
-1.78007 0.679121 0.0
-1.75765 0.769231 0.0
-1.78178 0.818182 0.0
-1.78996 0.86 0.0
-1.79996 1 0.0
-1.78568 0.964286 0.0
-1.76663 0.922222 0.0
-1.76569 0.1875 0.0
-1.73222 0.15 0.0
-1.74896 0.25 0.0
-1.73714 0.304762 0.0
-1.76743 0.537202 0.0
-1.72869 0.343878 0.0
-1.76732 0.485119 0.0
-1.76723 0.440476 0.0
-1.72243 0.410714 0.0
-1.76757 0.607143 0.0
-1.69875 0 0.0
-1.68369 0.035 0.0
-1.69875 0.1125 0.0
-1.66528 0.075 0.0
-1.74341 0.708974 0.0
-1.73324 0.665934 0.0
-1.70441 0.74478 0.0
-1.71423 0.785714 0.0
-1.72303 0.826923 0.0
-1.74541 0.854545 0.0
-1.74541 0.890909 0.0
-1.74996 1 0.0
-1.73745 0.9625 0.0
-1.71359 0.927273 0.0
-1.68716 0.153846 0.0
-1.7131 0.214286 0.0
-1.70725 0.275 0.0
-1.69712 0.321939 0.0
-1.72279 0.589286 0.0
-1.72261 0.5 0.0
-1.7227 0.544643 0.0
-1.6827 0.355102 0.0
-1.67773 0.428571 0.0
-1.70763 0.464286 0.0
-1.70369 0.62449 0.0
-1.64854 0 0.0
-1.63181 0.0375 0.0
-1.64137 0.142857 0.0
-1.61764 0.0769231 0.0
-1.69458 0.703846 0.0
-1.67471 0.657437 0.0
-1.66143 0.727637 0.0
-1.67125 0.768571 0.0
-1.67851 0.821429 0.0
-1.68841 0.861538 0.0
-1.70904 0.890909 0.0
-1.69995 1 0.0
-1.68176 0.963636 0.0
-1.67267 0.927273 0.0
-1.65427 0.187143 0.0
-1.66718 0.231429 0.0
-1.66554 0.3 0.0
-1.67802 0.571429 0.0
-1.67792 0.523809 0.0
-1.6367 0.366327 0.0
-1.63682 0.423469 0.0
-1.62568 0.502976 0.0
-1.6629 0.470238 0.0
-1.65254 0.618367 0.0
-1.6059 0.307143 0.0
-1.59833 0 0.0
-1.58288 0.0384615 0.0
-1.60563 0.169643 0.0
-1.58179 0.112271 0.0
-1.56964 0.0714286 0.0
-1.64574 0.690385 0.0
-1.62827 0.751429 0.0
-1.63371 0.791071 0.0
-1.64279 0.857143 0.0
-1.65378 0.896154 0.0
-1.64994 1 0.0
-1.6363 0.963636 0.0
-1.61916 0.930769 0.0
-1.61345 0.209107 0.0
-1.62126 0.248571 0.0
-1.56989 0.196429 0.0
-1.63324 0.553571 0.0
-1.58846 0.535714 0.0
-1.59408 0.361905 0.0
-1.59161 0.402211 0.0
-1.58832 0.464286 0.0
-1.61504 0.598581 0.0
-1.59683 0.64359 0.0
-1.57899 0.274107 0.0
-1.56176 0.322381 0.0
-1.54812 0 0.0
-1.53378 0.0357143 0.0
-1.54593 0.147619 0.0
-1.53385 0.0732143 0.0
-1.53393 0.110714 0.0
-1.58522 0.704286 0.0
-1.58709 0.745 0.0
-1.58896 0.785714 0.0
-1.60695 0.830357 0.0
-1.60707 0.892857 0.0
-1.59993 1 0.0
-1.58454 0.965385 0.0
-1.57135 0.928571 0.0
-1.55209 0.241071 0.0
-1.5291 0.198214 0.0
-1.56936 0.570918 0.0
-1.54369 0.517857 0.0
-1.5464 0.380952 0.0
-1.54564 0.427721 0.0
-1.54488 0.47449 0.0
-1.55026 0.606122 0.0
-1.54222 0.677143 0.0
-1.52943 0.282857 0.0
-1.52143 0.33619 0.0
-1.49792 0 0.0
-1.49802 0.05 0.0
-1.49822 0.15 0.0
-1.49312 0.1 0.0
-1.5423 0.717143 0.0
-1.54419 0.767857 0.0
-1.54727 0.819048 0.0
-1.57122 0.861905 0.0
-1.53553 0.914286 0.0
-1.54992 1 0.0
-1.53563 0.964286 0.0
-1.49842 0.25 0.0
-1.48831 0.2 0.0
-1.5214 0.558929 0.0
-1.49891 0.5 0.0
-1.49871 0.4 0.0
-1.47631 0.45 0.0
-1.49911 0.6 0.0
-1.49921 0.65 0.0
-1.49931 0.7 0.0
-1.48111 0.35 0.0
-1.48351 0.3 0.0
-1.44771 0 0.0
-1.44782 0.05 0.0
-1.44804 0.15 0.0
-1.44793 0.1 0.0
-1.49941 0.75 0.0
-1.49951 0.8 0.0
-1.49981 0.95 0.0
-1.49961 0.85 0.0
-1.49971 0.9 0.0
-1.49991 1 0.0
-1.44826 0.25 0.0
-1.43815 0.2 0.0
-1.47151 0.55 0.0
-1.44881 0.5 0.0
-1.44859 0.4 0.0
-1.42619 0.45 0.0
-1.44913 0.65 0.0
-1.44902 0.6 0.0
-1.44935 0.75 0.0
-1.44924 0.7 0.0
-1.43972 0.35 0.0
-1.43336 0.3 0.0
-1.3975 0 0.0
-1.39762 0.05 0.0
-1.39786 0.15 0.0
-1.39274 0.1 0.0
-1.44957 0.85 0.0
-1.44946 0.8 0.0
-1.4523 0.95 0.0
-1.44968 0.9 0.0
-1.4499 1 0.0
-1.3981 0.25 0.0
-1.38798 0.2 0.0
-1.42141 0.55 0.0
-1.3987 0.5 0.0
-1.39834 0.35 0.0
-1.37845 0.4 0.0
-1.37607 0.45 0.0
-1.40784 0.65 0.0
-1.39894 0.6 0.0
-1.41185 0.75 0.0
-1.39918 0.7 0.0
-1.38322 0.3 0.0
-1.34729 0 0.0
-1.34492 0.05 0.0
-1.34018 0.15 0.0
-1.34255 0.1 0.0
-1.40707 0.85 0.0
-1.39941 0.8 0.0
-1.39977 0.95 0.0
-1.39965 0.9 0.0
-1.39989 1 0.0
-1.33781 0.2 0.0
-1.33544 0.25 0.0
-1.37131 0.55 0.0
-1.34859 0.5 0.0
-1.33833 0.4 0.0
-1.3307 0.35 0.0
-1.32595 0.45 0.0
-1.34885 0.6 0.0
-1.36655 0.65 0.0
-1.36179 0.75 0.0
-1.34911 0.7 0.0
-1.33307 0.3 0.0
-1.29708 0 0.0
-1.29722 0.05 0.0
-1.2975 0.15 0.0
-1.29236 0.1 0.0
-1.35703 0.85 0.0
-1.34937 0.8 0.0
-1.34988 1 0.0
-1.34962 0.9 0.0
-1.35226 0.95 0.0
-1.28528 0.25 0.0
-1.28764 0.2 0.0
-1.28931 0.35 0.0
-1.32121 0.55 0.0
-1.29848 0.5 0.0
-1.28709 0.45 0.0
-1.2982 0.4 0.0
-1.29876 0.6 0.0
-1.31647 0.65 0.0
-1.29918 0.75 0.0
-1.29904 0.7 0.0
-1.28292 0.3 0.0
-1.24687 0 0.0
-1.24702 0.05 0.0
-1.24717 0.1 0.0
-1.24732 0.15 0.0
-1.29946 0.85 0.0
-1.29932 0.8 0.0
-1.29987 1 0.0
-1.29974 0.95 0.0
-1.30462 0.9 0.0
-1.24762 0.25 0.0
-1.23747 0.2 0.0
-1.24792 0.35 0.0
-1.22807 0.4 0.0
-1.27111 0.55 0.0
-1.24837 0.5 0.0
-1.24822 0.45 0.0
-1.24867 0.6 0.0
-1.26639 0.65 0.0
-1.26167 0.75 0.0
-1.24897 0.7 0.0
-1.23277 0.3 0.0
-1.19667 0 0.0
-1.19683 0.05 0.0
-1.18964 0.15 0.0
-1.19198 0.1 0.0
-1.25695 0.85 0.0
-1.24927 0.8 0.0
-1.25223 0.95 0.0
-1.24987 1 0.0
-1.24957 0.9 0.0
-1.1873 0.2 0.0
-1.18496 0.25 0.0
-1.18028 0.35 0.0
-1.17794 0.4 0.0
-1.1981 0.45 0.0
-1.19842 0.55 0.0
-1.19826 0.5 0.0
-1.19858 0.6 0.0
-1.19874 0.65 0.0
-1.19906 0.75 0.0
-1.1989 0.7 0.0
-1.18262 0.3 0.0
-1.14646 0 0.0
-1.14663 0.05 0.0
-1.1418 0.1 0.0
-1.13713 0.2 0.0
-1.14697 0.15 0.0
-1.20691 0.85 0.0
-1.20926 0.8 0.0
-1.20221 0.95 0.0
-1.19986 1 0.0
-1.20456 0.9 0.0
-1.13997 0.3 0.0
-1.14731 0.25 0.0
-1.13781 0.4 0.0
-1.13014 0.35 0.0
-1.12548 0.45 0.0
-1.14815 0.5 0.0
-1.15962 0.55 0.0
-1.14849 0.6 0.0
-1.15745 0.65 0.0
-1.16155 0.75 0.0
-1.14917 0.8 0.0
-1.14883 0.7 0.0
-1.09625 0 0.0
-1.09661 0.1 0.0
-1.09393 0.05 0.0
-1.09697 0.2 0.0
-1.08929 0.15 0.0
-1.15687 0.85 0.0
-1.14985 1 0.0
-1.15219 0.95 0.0
-1.14951 0.9 0.0
-1.09733 0.3 0.0
-1.08465 0.25 0.0
-1.09769 0.4 0.0
-1.08 0.35 0.0
-1.08661 0.45 0.0
-1.09804 0.5 0.0
-1.12082 0.55 0.0
-1.10916 0.8 0.0
-1.10629 0.7 0.0
-1.0984 0.6 0.0
-1.11616 0.65 0.0
-1.11149 0.75 0.0
-1.04604 0 0.0
-1.04623 0.05 0.0
-1.04642 0.1 0.0
-1.0468 0.2 0.0
-1.03911 0.15 0.0
-1.09948 0.9 0.0
-1.0993 0.85 0.0
-1.09984 1 0.0
-1.09966 0.95 0.0
-1.04718 0.3 0.0
-1.03449 0.25 0.0
-1.04756 0.4 0.0
-1.02986 0.35 0.0
-1.04775 0.45 0.0
-1.04794 0.5 0.0
-1.04813 0.55 0.0
-1.05911 0.8 0.0
-1.04831 0.6 0.0
-1.06376 0.7 0.0
-1.0485 0.65 0.0
-1.04888 0.75 0.0
-0.995833 0 0.0
-0.991231 0.1 0.0
-0.996033 0.05 0.0
-0.986629 0.2 0.0
-0.98893 0.15 0.0
-1.05447 0.9 0.0
-1.04926 0.85 0.0
-1.04983 1 0.0
-1.04964 0.95 0.0
-0.984328 0.25 0.0
-0.99703 0.3 0.0
-0.997429 0.4 0.0
-0.997628 0.45 0.0
-0.979726 0.35 0.0
-0.997827 0.5 0.0
-0.998027 0.55 0.0
-0.998226 0.6 0.0
-0.961416 0.475 0.0
-1.00907 0.8 0.0
-0.998426 0.65 0.0
-0.998625 0.7 0.0
-1.01138 0.75 0.0
-0.945625 0 0.0
-0.946044 0.1 0.0
-0.943334 0.05 0.0
-0.946463 0.2 0.0
-0.938752 0.15 0.0
-1.00444 0.9 0.0
-1.00675 0.85 0.0
-0.999821 1 0.0
-1.00213 0.95 0.0
-0.93417 0.25 0.0
-0.946881 0.3 0.0
-0.9473 0.4 0.0
-0.929588 0.35 0.0
-0.925005 0.45 0.0
-0.960371 0.525 0.0
-0.959325 0.575 0.0
-0.958279 0.625 0.0
-0.922714 0.5 0.0
-0.959017 0.8 0.0
-0.957233 0.675 0.0
-0.952999 0.7125 0.0
-0.948766 0.75 0.0
-0.895417 0 0.0
-0.895855 0.1 0.0
-0.893136 0.05 0.0
-0.896294 0.2 0.0
-0.888573 0.15 0.0
-0.949184 0.85 0.0
-0.954415 0.9 0.0
-0.949812 1 0.0
-0.949603 0.95 0.0
-0.884011 0.25 0.0
-0.896733 0.3 0.0
-0.874887 0.45 0.0
-0.879449 0.35 0.0
-0.897171 0.4 0.0
-0.920423 0.55 0.0
-0.918132 0.6 0.0
-0.915841 0.65 0.0
-0.872606 0.5 0.0
-0.908968 0.8 0.0
-0.91355 0.7 0.0
-0.898707 0.75 0.0
-0.845208 0 0.0
-0.845438 0.05 0.0
-0.845667 0.1 0.0
-0.845896 0.15 0.0
-0.833853 0.25 0.0
-0.846126 0.2 0.0
-0.899146 0.85 0.0
-0.904386 0.9 0.0
-0.899584 0.95 0.0
-0.899804 1 0.0
-0.838062 0.35 0.0
[...]
POINT_DATA 10839
VECTORS Velocity float
0.21 0 0.0
0.24 0 0.0
0.2275 0 0.0
0.2475 0 0.0
0.25 0 0.0
0.2475 0 0.0
0 0 0.0
0.0475 0 0.0
0.1275 0 0.0
0.09 0 0.0
0.09 0 0.0
0.1275 0 0.0
0.1875 0 0.0
0.16 0 0.0
0.195644 -0.000649755 0.0
0.24276 -0.000495363 0.0
0.215743 -0.000805166 0.0
0.231343 -0.000767849 0.0
0.248601 -0.000201129 0.0
0.24 0 0.0
0.242758 0.000470788 0.0
0.2484 0.0001643 0.0
0 0 0.0
0.062045 0.00110196 0.0
0.031176 0.00013248 0.0
0.16 0 0.0
0.1875 0 0.0
0.21 0 0.0
0.2275 0 0.0
0.193691 0.000710319 0.0
0.139048 -0.000205462 0.0
0 0 0.0
0.0475 0 0.0
0.100026 -0.000928381 0.0
0.0620896 -0.00111553 0.0
0.0998498 0.000984525 0.0
0.139079 0.000178045 0.0
0.174731 -0.00121764 0.0
0.201719 -0.00191858 0.0
0.235493 -0.00149841 0.0
0.243714 -0.00104825 0.0
0.223238 -0.00325013 0.0
0.249257 -0.00022049 0.0
0.248498 0.000457672 0.0
0.231317 0.000716852 0.0
0.243718 0.00102718 0.0
0 0 0.0
0.037896 -0.0023606 0.0
0.0744021 -0.00339952 0.0
0.0670697 -0.00816785 0.0
0.174727 0.00117829 0.0
0.220093 0.00158193 0.0
0.201749 0.00189848 0.0
0.115997 0.000370703 0.0
0.147304 0.00125474 0.0
0 0 0.0
0.0353806 0.000328629 0.0
0.0695379 0.00107841 0.0
0.0904967 0.00540093 0.0
0.109993 -0.00553287 0.0
0.147248 -0.00114217 0.0
0.179306 -0.00413244 0.0
0.206173 -0.00460004 0.0
0.213382 -0.00743443 0.0
0.237627 -0.00270039 0.0
0.24623 -0.001368 0.0
0.227852 -0.00620874 0.0
0.225842 0.00337005 0.0
0.248806 0.000120963 0.0
0.245388 0.00144563 0.0
0.235945 0.00255693 0.0
0 0 0.0
0.0423692 -0.00358634 0.0
0.0975257 -0.014322 0.0
0.0844771 -0.0144788 0.0
0.179314 0.00408874 0.0
0.206075 0.00444703 0.0
0.127693 0.0105226 0.0
0.165397 0.0118094 0.0
0.152792 0.00649647 0.0
0 0 0.0
0.0378801 0.00241637 0.0
0.06723 0.00815559 0.0
0.0975112 0.0141923 0.0
0.127606 -0.0106968 0.0
0.156535 -0.0110714 0.0
0.116224 -0.0205683 0.0
0.191715 -0.0150311 0.0
0.214737 -0.0131799 0.0
0.238819 -0.00419281 0.0
0.24538 -0.00217376 0.0
0.247552 -5.80532e-05 0.0
0.229828 -0.0102382 0.0
0.227882 0.00607417 0.0
0.245393 0.00202497 0.0
0.238789 0.00408765 0.0
0 0 0.0
0.0555257 -0.00445028 0.0
0.109892 -0.0239559 0.0
0.091417 -0.0124312 0.0
0.188928 0.0108073 0.0
0.210272 0.0129887 0.0
0.167637 0.0218155 0.0
0.142759 0.02247 0.0
0 0 0.0
0.0514607 0.00539119 0.0
0.105736 0.0219532 0.0
0.0842121 0.0143498 0.0
0.16755 -0.0219326 0.0
0.142537 -0.0226001 0.0
0.127585 -0.0296939 0.0
0.178212 -0.0262571 0.0
0.197526 -0.02375 0.0
0.213956 -0.0202647 0.0
0.243973 0.00228489 0.0
0.239101 -0.00632532 0.0
0.243993 -0.00245123 0.0
0.229066 -0.0138676 0.0
0.229804 0.010073 0.0
0.238704 0.00679704 0.0
0 0 0.0
0.0631864 -0.00343341 0.0
0.114072 -0.0227663 0.0
0.106805 -0.0117934 0.0
0.191202 0.0236344 0.0
0.210469 0.0206108 0.0
0.170313 0.0333007 0.0
0.145974 0.0311387 0.0
0.123142 0.0279057 0.0
0 0 0.0
0.0553193 0.00438279 0.0
0.0980724 0.0155785 0.0
0.149313 -0.0335522 0.0
0.135303 -0.0311999 0.0
0.178619 -0.0332962 0.0
0.19966 -0.0293769 0.0
0.238841 0.00469694 0.0
0.211316 -0.025177 0.0
0.239923 -0.00196311 0.0
0.236763 -0.00773222 0.0
0.225847 -0.0152088 0.0
0.229081 0.0135128 0.0
0 0 0.0
0.0744034 -0.00291564 0.0
0.130143 -0.0215853 0.0
0.12326 -0.010147 0.0
0.195118 0.0300221 0.0
0.208959 0.025887 0.0
0.177966 0.0357517 0.0
0.162198 0.0362116 0.0
0.145336 0.0339369 0.0
0.131611 0.0307151 0.0
0.117589 0.0234099 0.0
0 0 0.0
0.0684523 0.0043372 0.0
0.109815 0.0122436 0.0
0.144028 -0.0290066 0.0
0.162295 -0.0364831 0.0
0.185609 -0.0346699 0.0
0.200358 -0.0301793 0.0
0.225786 0.0150085 0.0
0.233364 -0.000100159 0.0
0.231537 0.00751211 0.0
0.207618 -0.0260321 0.0
0.220581 -0.0136957 0.0
0.229559 -0.0066539 0.0
0.215709 0.0219412 0.0
0 0 0.0
0.0859062 -0.00237156 0.0
0.148875 -0.0223011 0.0
0.133717 -0.00787475 0.0
0.191774 0.0328767 0.0
0.20312 0.0274999 0.0
0.181965 0.0333688 0.0
0.169292 0.0345806 0.0
0.152346 0.0315685 0.0
0.139378 0.0261719 0.0
0.126591 0.0214211 0.0
0 0 0.0
0.0768195 0.00307487 0.0
0.119907 0.0100023 0.0
0.157498 -0.0300486 0.0
0.169554 -0.0345925 0.0
0.190645 -0.0322456 0.0
0.220567 0.0134628 0.0
0.224592 0.00446325 0.0
0.203509 -0.0233437 0.0
0.212593 -0.0143544 0.0
0.215001 0.000381332 0.0
0.221466 -0.00593853 0.0
0.208689 0.021363 0.0
0.188095 -0.0266771 0.0
0 0 0.0
0.0926118 -0.00171342 0.0
0.159627 -0.0220516 0.0
0.153316 -0.0113472 0.0
0.136851 -0.00500577 0.0
0.191506 0.0300446 0.0
0.174953 0.0304354 0.0
0.164831 0.0293112 0.0
0.148922 0.0222014 0.0
0.137839 0.0156438 0.0
0 0 0.0
0.0831912 0.00227573 0.0
0.127749 0.00660771 0.0
0.166516 -0.0269186 0.0
0.175201 -0.0298417 0.0
0.167701 -0.0203871 0.0
0.2142 0.0098486 0.0
0.20756 0.00576168 0.0
0.197489 -0.0208222 0.0
0.202871 -0.0156929 0.0
0.207479 -0.00613557 0.0
0.206116 0.0168004 0.0
0.196736 0.0213705 0.0
0.180841 -0.0245137 0.0
0.188551 -0.0208533 0.0
0 0 0.0
0.0906488 -0.0010158 0.0
0.163525 -0.0130132 0.0
0.142193 -0.00401603 0.0
0.159336 -0.00808475 0.0
0.184678 0.0244338 0.0
0.176956 0.0251821 0.0
0.16908 0.0238019 0.0
0.159287 0.0220015 0.0
0.147884 0.0123796 0.0
0 0 0.0
0.0848824 0.00142288 0.0
0.136637 0.00492811 0.0
0.175432 -0.0206115 0.0
0.170901 -0.0159638 0.0
0.20238 0.0103425 0.0
0.201464 0.00221539 0.0
0.195122 -0.0149115 0.0
0.199349 -0.00975663 0.0
0.201531 -0.00366607 0.0
0.196775 0.0134782 0.0
0.187431 0.0183545 0.0
0.181737 -0.0184235 0.0
0.188248 -0.0159843 0.0
0 0 0.0
0.118168 -0.0015064 0.0
0.168377 -0.00964344 0.0
0.160191 -0.00507463 0.0
0.181724 0.0195753 0.0
0.174255 0.0190738 0.0
0.167153 0.0162771 0.0
0.158796 0.0140578 0.0
0.149959 0.00519915 0.0
0 0 0.0
0.0904044 0.00103069 0.0
0.17805 -0.0149557 0.0
0.173446 -0.0122743 0.0
0.197257 0.00662695 0.0
0.196236 -0.000262735 0.0
0.192634 -0.00984725 0.0
0.19319 -0.00470835 0.0
0.192566 0.00943911 0.0
0.188352 0.012873 0.0
0.183182 0.0146812 0.0
0.187638 -0.011872 0.0
0.183178 -0.0136218 0.0
0 0 0.0
0.120647 -0.00091295 0.0
0.171864 -0.00676244 0.0
0.163712 -0.00362228 0.0
0.177716 0.0147146 0.0
0.172575 0.0129133 0.0
0.117726 0.00145785 0.0
0.167764 0.00955545 0.0
0.159037 0.00523173 0.0
0 0 0.0
0.178855 -0.0107063 0.0
0.175681 -0.00872093 0.0
0.192785 0.00406558 0.0
0.191787 -0.000261839 0.0
0.189212 -0.0072431 0.0
0.189685 -0.00347197 0.0
0.18607 0.00915415 0.0
0.189083 0.00672115 0.0
0.17853 0.0104118 0.0
0.182424 0.0104369 0.0
0.185963 -0.00906042 0.0
0.182525 -0.00978968 0.0
0 0 0.0
0.122549 -0.000508916 0.0
0.174406 -0.00473092 0.0
0.166641 -0.00245206 0.0
0.171466 0.0065897 0.0
0.174825 0.00910024 0.0
0.120064 0.000889695 0.0
0.163092 0.00353286 0.0
0 0 0.0
0.17955 -0.00761801 0.0
0.177296 -0.00617815 0.0
0.189268 0.00277928 0.0
0.188524 -0.000320679 0.0
0.18472 -0.00688931 0.0
0.185994 -0.00460318 0.0
0.187044 -0.00259115 0.0
0.184737 0.00679263 0.0
0.186621 0.00465462 0.0
0.179018 0.00793577 0.0
0.181892 0.0072844 0.0
0.182111 -0.00700841 0.0
0 0 0.0
0.12341 -0.000530621 0.0
0.176448 -0.00316291 0.0
0.168462 -0.00175876 0.0
0.173539 0.00476945 0.0
0.176537 0.00631877 0.0
0.121685 0.000519696 0.0
0.165806 0.00237666 0.0
0 0 0.0
0.17848 -0.00439053 0.0
0.180146 -0.00497933 0.0
0.186763 0.00183898 0.0
0.186283 -0.00036389 0.0
0.184813 -0.00358611 0.0
0.183362 -0.00444687 0.0
0.185253 -0.00196693 0.0
0.184877 0.00313391 0.0
0.18371 0.00498019 0.0
0.179464 0.00546862 0.0
0.181515 0.00499895 0.0
0.181841 -0.00503196 0.0
0 0 0.0
0.123883 -0.00038893 0.0
0.177506 -0.00237346 0.0
0.169731 -0.00124605 0.0
0.175365 0.00324248 0.0
0.177702 0.0043352 0.0
0 0 0.0
0.167788 0.0015985 0.0
0.122733 0.000382966 0.0
0.18051 -0.00360038 0.0
0.179326 -0.00313858 0.0
0.182816 -0.0034388 0.0
0.18499 0.00113105 0.0
0.184667 -0.000424652 0.0
0.184237 -0.00163348 0.0
0.183886 -0.00283405 0.0
0.183646 0.00203774 0.0
0.182807 0.00335046 0.0
0.179856 0.00334528 0.0
0.181243 0.00336807 0.0
0.181675 -0.00365433 0.0
0 0 0.0
0.124647 -0.000166597 0.0
0.170475 -0.00087068 0.0
0.178381 -0.0017074 0.0
0.176799 0.00205343 0.0
0.178521 0.00292441 0.0
0 0 0.0
0.123349 0.000254486 0.0
0.168631 0.00111703 0.0
0.180743 -0.0028488 0.0
0.179992 -0.00229143 0.0
0.182413 -0.00270688 0.0
0.182813 -0.00197492 0.0
0.183753 0.000611192 0.0
0.183557 -0.000496955 0.0
0.183466 -0.00139411 0.0
0.182777 0.00123779 0.0
0.182164 0.00217758 0.0
0.180008 0.00245376 0.0
0.18104 0.00219521 0.0
0.181587 -0.00272168 0.0
0 0 0.0
0.125126 -5.06145e-05 0.0
0.179357 -0.00121761 0.0
0.171471 -0.00059735 0.0
0.177498 0.00143572 0.0
0.179075 0.00192246 0.0
0.123576 0.000145017 0.0
0 0 0.0
0.169448 0.000697557 0.0
0.180449 -0.00173231 0.0
0.18102 -0.00200333 0.0
0.182004 -0.00193763 0.0
0.182338 -0.00162062 0.0
0.182749 -0.00120592 0.0
0.182563 6.45511e-05 0.0
0.182773 -0.000580539 0.0
0.182155 0.000645468 0.0
0.181564 0.00108532 0.0
0.180154 0.00137106 0.0
0.180877 0.00134985 0.0
0.181547 -0.00209559 0.0
0 0 0.0
0.125625 -9.88875e-05 0.0
0.171796 -0.000544449 0.0
0.180836 -0.00137385 0.0
0.17967 -0.000997069 0.0
0.178081 0.000905112 0.0
0.17937 0.00133401 0.0
0.124022 7.61183e-05 0.0
0 0 0.0
0.170092 0.000441034 0.0
0.181543 -0.00174114 0.0
0.181184 -0.00168519 0.0
0.182068 -0.00144057 0.0
0.181825 -0.00161867 0.0
0.18208 -0.00109805 0.0
0.182225 -0.000679152 0.0
0.182148 -0.000163114 0.0
0.181706 0.000192409 0.0
0.181309 0.000607466 0.0
0.180201 0.000905481 0.0
0.179672 0.000688424 0.0
0.18074 0.000726886 0.0
0 0 0.0
0.172443 -0.000508536 0.0
0.125899 -0.000274338 0.0
0.181099 -0.0011832 0.0
0.180149 -0.000845452 0.0
0.178417 0.000513245 0.0
0 0 0.0
0.124224 2.46879e-06 0.0
0.170497 0.000210987 0.0
0.181569 -0.00151006 0.0
0.181387 -0.00136165 0.0
0.181878 -0.00134039 0.0
0.181726 -0.00143957 0.0
0.181855 -0.00110706 0.0
0.181843 -0.000797305 0.0
0.181817 -0.000365708 0.0
0.179756 0.000373673 0.0
0.180636 0.000317934 0.0
0.18138 -0.000167581 0.0
0.181097 0.000225055 0.0
0.180209 0.000425643 0.0
0 0 0.0
0.125476 -0.000147995 0.0
0.172423 -0.000467219 0.0
0.181353 -0.00104152 0.0
0.180511 -0.00075359 0.0
0.170743 7.95552e-05 0.0
0.178583 0.000193163 0.0
0 0 0.0
0.124666 -5.98027e-05 0.0
0.181618 -0.0013617 0.0
0.181559 -0.0012359 0.0
0.181719 -0.00129934 0.0
0.181684 -0.00137185 0.0
0.181682 -0.0011502 0.0
0.18157 -0.000937735 0.0
0.181381 -0.000699801 0.0
0.179799 6.68009e-05 0.0
0.181128 -0.000473067 0.0
0.180532 -1.40089e-05 0.0
0.180824 -0.000267805 0.0
0.180166 -2.54697e-05 0.0
0 0 0.0
0.172848 -0.000404048 0.0
0.126468 -2.96404e-05 0.0
0.18164 -0.000971658 0.0
0.180829 -0.000716395 0.0
0.170657 -1.44979e-05 0.0
0.178733 -2.63863e-05 0.0
0 0 0.0
0.123989 4.5063e-05 0.0
0.181723 -0.00120125 0.0
0.181695 -0.00131837 0.0
0.181632 -0.00134195 0.0
0.181532 -0.0012461 0.0
0.181685 -0.00138969 0.0
0.18138 -0.00109972 0.0
0.181179 -0.000926504 0.0
0.180932 -0.000743174 0.0
0.18137 -0.00130054 0.0
0.179787 -0.00019256 0.0
0.180657 -0.000570267 0.0
0.180371 -0.000422697 0.0
0.180108 -0.000243102 0.0
0 0 0.0
0.173387 -0.000401749 0.0
0.126626 -0.00020167 0.0
0.181836 -0.000992977 0.0
0.181063 -0.000747151 0.0
0.170688 -0.000153891 0.0
0.178753 -0.000166891 0.0
0 0 0.0
0.124112 -7.05621e-05 0.0
0.181904 -0.00123651 0.0
0.181796 -0.00135745 0.0
0.181581 -0.00144389 0.0
0.181724 -0.00148606 0.0
0.1814 -0.00148137 0.0
0.181164 -0.00117501 0.0
0.180925 -0.00102774 0.0
0.180663 -0.000871932 0.0
0.181185 -0.00140563 0.0
0.179713 -0.000407223 0.0
0.180391 -0.000721961 0.0
0.180182 -0.000636356 0.0
0.17998 -0.000556496 0.0
0 0 0.0
0.173481 -0.000476086 0.0
0.126702 -0.000191698 0.0
0.182091 -0.00106555 0.0
0.181377 -0.00081034 0.0
0.178687 -0.000328351 0.0
0.170624 -0.000284464 0.0
0 0 0.0
0.124334 -0.000205755 0.0
0.182101 -0.00134222 0.0
0.181921 -0.00146841 0.0
0.181346 -0.00169943 0.0
0.181791 -0.00164588 0.0
0.181582 -0.00161398 0.0
0.180939 -0.00129585 0.0
0.180672 -0.00116356 0.0
0.180397 -0.00102015 0.0
0.181086 -0.0016526 0.0
0.179592 -0.000591744 0.0
0.180128 -0.000872149 0.0
0.179832 -0.000786685 0.0
0 0 0.0
0.126478 -0.000194265 0.0
0.173754 -0.000546468 0.0
0.181762 -0.000887291 0.0
0.182325 -0.0015081 0.0
0.182349 -0.00118777 0.0
0.178531 -0.000470043 0.0
0.170478 -0.000277395 0.0
0.123889 -4.65348e-05 0.0
0 0 0.0
0.181867 -0.00182794 0.0
0.182076 -0.00164914 0.0
0.181326 -0.00190902 0.0
0.181602 -0.00184765 0.0
0.180232 -0.0012904 0.0
0.180808 -0.00156138 0.0
0.180517 -0.00143751 0.0
0.181011 -0.00194257 0.0
0.179656 -0.00101018 0.0
0.179376 -0.000801221 0.0
0.179903 -0.00120122 0.0
0 0 0.0
0.127293 -0.000194412 0.0
0.174277 -0.000600774 0.0
0.182036 -0.00100828 0.0
0.182509 -0.00167271 0.0
0.182733 -0.0014213 0.0
0.178366 -0.000598737 0.0
0.170119 -0.000317294 0.0
0.123475 -9.24249e-05 0.0
0 0 0.0
0.178211 -0.000737446 0.0
0.181958 -0.00204448 0.0
0.182311 -0.00199048 0.0
0.181664 -0.00227848 0.0
0.181314 -0.00214977 0.0
0.17999 -0.00167561 0.0
0.180365 -0.00173199 0.0
0.180686 -0.0018629 0.0
0.180933 -0.00228361 0.0
0.179445 -0.00123726 0.0
0.179149 -0.000991607 0.0
0.179698 -0.00147122 0.0
0 0 0.0
0.127699 -0.000190357 0.0
0.174817 -0.000736548 0.0
0.182427 -0.00121348 0.0
0.182799 -0.00194605 0.0
0.1831 -0.00168072 0.0
0.123151 -0.000132467 0.0
0.170072 -0.000448564 0.0
0 0 0.0
0.17786 -0.000857313 0.0
0.182094 -0.00239495 0.0
0.182535 -0.00233457 0.0
0.181731 -0.00266963 0.0
0.181299 -0.0025236 0.0
0.179812 -0.00194063 0.0
0.180203 -0.00205711 0.0
0.180859 -0.00268549 0.0
0.180505 -0.00237088 0.0
0.17925 -0.00141453 0.0
0.178883 -0.00119078 0.0
0.17946 -0.00175411 0.0
0 0 0.0
0.128403 -0.000294109 0.0
0.175234 -0.000964196 0.0
0.182915 -0.00149622 0.0
0.183199 -0.00239555 0.0
0.182787 -0.00276626 0.0
0.183514 -0.00201859 0.0
0.123121 -0.000227476 0.0
0.169665 -0.000603912 0.0
0 0 0.0
0.177551 -0.00100616 0.0
0.182304 -0.00297414 0.0
0.181789 -0.00304622 0.0
0.181292 -0.00296971 0.0
0.180789 -0.00303474 0.0
0.17962 -0.00222225 0.0
0.180004 -0.00243524 0.0
0.180355 -0.00278759 0.0
0.178573 -0.00139681 0.0
0.178957 -0.00167172 0.0
0.179177 -0.00206596 0.0
0 0 0.0
0.128861 -0.000556331 0.0
0.175969 -0.00119476 0.0
0.183516 -0.00182638 0.0
0.183498 -0.00274253 0.0
0.183065 -0.00327308 0.0
0.183995 -0.0024138 0.0
0.122787 -0.000321954 0.0
0.169389 -0.00067681 0.0
0 0 0.0
0.178244 -0.00156513 0.0
0.168821 -0.000682853 0.0
0.177013 -0.00116887 0.0
0.182488 -0.0035488 0.0
0.181846 -0.00346036 0.0
0.181264 -0.00375988 0.0
0.18072 -0.00342006 0.0
0.180228 -0.00315944 0.0
0.179352 -0.00259852 0.0
0.179696 -0.00304192 0.0
0.178509 -0.00202269 0.0
0.178899 -0.00236662 0.0
0.182665 -0.00407847 0.0
0 0 0.0
0.129638 -0.000570276 0.0
0.184267 -0.00218635 0.0
0.176734 -0.00145065 0.0
0.183404 -0.00392303 0.0
0.184033 -0.00343114 0.0
0.184533 -0.00290772 0.0
0.122577 -0.000292888 0.0
0 0 0.0
0.178185 -0.00226668 0.0
0.177799 -0.00180817 0.0
0.176686 -0.00134329 0.0
0.121666 -0.000144433 0.0
0.168506 -0.000764599 0.0
0.181935 -0.00410308 0.0
0.181235 -0.00427184 0.0
0.180586 -0.00401621 0.0
0.180474 -0.00453627 0.0
0.180069 -0.00356964 0.0
0.17902 -0.00303653 0.0
0.179396 -0.00355507 0.0
0.178571 -0.00268119 0.0
0.182818 -0.0046997 0.0
0.130258 -0.000651618 0.0
0 0 0.0
0.184853 -0.0025499 0.0
0.17758 -0.0016797 0.0
0.183767 -0.00470353 0.0
0.184434 -0.00395756 0.0
0.185219 -0.00352125 0.0
0 0 0.0
0.177703 -0.00260638 0.0
0.177132 -0.00214556 0.0
0.176079 -0.00151143 0.0
0.121424 -0.000247522 0.0
0.167749 -0.000928901 0.0
0.182026 -0.00520421 0.0
0.181201 -0.00484193 0.0
0.180321 -0.00510298 0.0
0.17972 -0.00445417 0.0
0.178641 -0.00352078 0.0
0.179064 -0.00413487 0.0
0.177991 -0.0032446 0.0
0.183059 -0.00561806 0.0
0 0 0.0
0.131727 -0.000730999 0.0
0.185802 -0.00312587 0.0
0.178804 -0.00200881 0.0
0.185997 -0.00429918 0.0
0.184175 -0.00567059 0.0
0.185173 -0.00500751 0.0
0 0 0.0
0 0 0.0
0.17713 -0.00300374 0.0
0.176549 -0.0024681 0.0
0.175474 -0.00174778 0.0
0.167102 -0.00109434 0.0
0.120916 -0.000443742 0.0
0.182065 -0.006173 0.0
0.181096 -0.00571398 0.0
0.178738 -0.00465167 0.0
0.180077 -0.00596621 0.0
0.179381 -0.00520029 0.0
0.178177 -0.00407574 0.0
0.177434 -0.00373063 0.0
0.182067 -0.00708566 0.0
0.183244 -0.00672658 0.0
0.133228 -0.000905349 0.0
0.179914 -0.00251564 0.0
0.18689 -0.0039204 0.0
0.18675 -0.00506996 0.0
0.184619 -0.0068315 0.0
0.185675 -0.00586728 0.0
0 0 0.0
0 0 0.0
0.175967 -0.00272752 0.0
0.176297 -0.00353547 0.0
0.166505 -0.00122345 0.0
0.174564 -0.00202678 0.0
0.120329 -0.000434712 0.0
0.180877 -0.00719168 0.0
0.17973 -0.00697196 0.0
0.176803 -0.00426926 0.0
0.178354 -0.00521484 0.0
0.179075 -0.00584896 0.0
0.177422 -0.00492145 0.0
0.182034 -0.00808304 0.0
0.18352 -0.00858105 0.0
0.185061 -0.00828748 0.0
0.134597 -0.0013744 0.0
0.181558 -0.00327518 0.0
0.188543 -0.00518252 0.0
0.187812 -0.00623304 0.0
0.186591 -0.00757096 0.0
0 0 0.0
0 0 0.0
0.174998 -0.00314771 0.0
0.175504 -0.00401698 0.0
0.165457 -0.00135353 0.0
0.173786 -0.00226578 0.0
0.119368 -0.000467441 0.0
0.178706 -0.00655989 0.0
0.179284 -0.00809301 0.0
0.180561 -0.00846988 0.0
0.176059 -0.00485569 0.0
0.177792 -0.00600811 0.0
0.176729 -0.00564728 0.0
0.174602 -0.00453058 0.0
0.181794 -0.0102122 0.0
0 0 0.0
0.183552 -0.0103356 0.0
0.187383 -0.00931604 0.0
0.185456 -0.0100183 0.0
0.137066 -0.00177794 0.0
0.19 -0.00635309 0.0
0.184071 -0.00442301 0.0
0.189199 -0.00820858 0.0
0 0 0.0
0 0 0.0
0 0 0.0
0 0 0.0
0 0 0.0
0.118449 -0.000510458 0.0
0.17296 -0.00252741 0.0
0.174049 -0.00354111 0.0
0.164544 -0.00145535 0.0
0.178117 -0.00755628 0.0
0.17868 -0.00937373 0.0
0.180152 -0.00991522 0.0
0.176064 -0.00626542 0.0
0.17518 -0.00549591 0.0
0.176789 -0.00725804 0.0
0.174339 -0.00607132 0.0
0.173818 -0.00492932 0.0
0.181384 -0.0120681 0.0
0.183481 -0.0123052 0.0
0 0 0.0
-0.000241525 7.89687e-05 0.0
0 0 0.0
0.000108882 -0.00161735 0.0
0.185789 -0.0121884 0.0
0.188045 -0.010918 0.0
0.140231 -0.00232179 0.0
0.191869 -0.00807736 0.0
0.186744 -0.00586059 0.0
0.190669 -0.0104422 0.0
0 0 0.0
0 0 0.0
0 0 0.0
0.000123477 -0.0010693 0.0
7.09826e-05 0.000209309 0.0
7.2576e-05 -9.67658e-05 0.0
0 0 0.0
0.117751 -0.000537279 0.0
0.17192 -0.00275075 0.0
0.172994 -0.00394854 0.0
0.163411 -0.00162573 0.0
0.177391 -0.00868055 0.0
0.177897 -0.0107978 0.0
0.179537 -0.0115404 0.0
0.175294 -0.00694417 0.0
0.176076 -0.00806464 0.0
0.173383 -0.00666603 0.0
0.172369 -0.00563137 0.0
0.180779 -0.0141358 0.0
0.182592 -0.0144012 0.0
0.18456 -0.0144055 0.0
0 0 0.0
-0.000104392 -0.00013702 0.0
0 0 0.0
0 0 0.0
0.000515943 -0.00566694 0.0
0.000808871 -0.0047567 0.0
0.186587 -0.0142795 0.0
0.188801 -0.013607 0.0
0.189922 -0.00767889 0.0
0.144242 -0.00319304 0.0
0.194156 -0.0105003 0.0
0.192101 -0.0133569 0.0
0 0 0.0
0.000631244 -0.00147132 0.0
0.000783965 -0.00305171 0.0
0.000656739 -0.000948543 0.0
0.00105506 -0.00105636 0.0
0 0 0.0
0.116754 -0.000591093 0.0
0.170713 -0.00303819 0.0
0.171791 -0.00435977 0.0
0.162183 -0.00179696 0.0
0.176479 -0.00990476 0.0
0.17689 -0.0123359 0.0
0.178673 -0.0133552 0.0
0.173828 -0.00812989 0.0
0.175256 -0.00889676 0.0
0.172096 -0.0074035 0.0
0.170469 -0.00479361 0.0
0.171025 -0.00621499 0.0
0.180033 -0.0159747 0.0
0.182765 -0.0164693 0.0
0.185817 -0.0169974 0.0
0 0 0.0
0.00108363 -0.000529728 0.0
0 0 0.0
0 0 0.0
0 0 0.0
0 0 0.0
0.00237321 -0.0068656 0.0
-0.000129785 -0.00185634 0.0
0.000313471 -0.00640354 0.0
0.00167912 -0.0116419 0.0
0.00181613 -0.00900706 0.0
0 0 0.0
-0.00115456 0.00333649 0.0
0.189355 -0.0179594 0.0
0.193172 -0.0162975 0.0
0 0 0.0
0.150173 -0.00486268 0.0
0.193988 -0.010248 0.0
0.197235 -0.0148735 0.0
0 0 0.0
0 0 0.0
0.00197952 -0.00416293 0.0
0.00236962 -0.00296022 0.0
0.00320872 -0.00210334 0.0
0 0 0.0
0.115739 -0.000660223 0.0
0.169203 -0.00338717 0.0
0.160984 -0.00197499 0.0
0.169269 -0.00512234 0.0
0.175356 -0.0112184 0.0
0.175948 -0.0135695 0.0
0.177519 -0.0153503 0.0
0.172738 -0.0088814 0.0
0.174051 -0.00999301 0.0
0.170658 -0.00814454 0.0
0.169907 -0.00663978 0.0
0.183753 -0.0188075 0.0
0.179021 -0.0179615 0.0
0.181401 -0.0204883 0.0
0.185019 -0.0216515 0.0
0.189336 -0.0225754 0.0
0 0 0.0
0.00250883 -0.000702757 0.0
-0.000921976 0.000843032 0.0
-0.00136332 -0.00666831 0.0
-0.000307725 -0.00166269 0.0
0.00397906 -0.0105289 0.0
0.00672628 -0.0101913 0.0
-0.000130285 -0.00816313 0.0
0.00128835 -0.0142619 0.0
0.0037591 -0.0161307 0.0
-0.0017581 0.00688796 0.0
-0.00412317 -0.00187824 0.0