# vtk DataFile Version 3.0
Mesh NS-CD Problem
ASCII
DATASET UNSTRUCTURED_GRID
POINTS 10839 float
-2 0.3 0.0
-2 0.4 0.0
-2 0.35 0.0
-2 0.45 0.0
-2 0.5 0.0
-2 0.55 0.0
-2 0 0.0
-2 0.05 0.0
-2 0.85 0.0
-2 0.9 0.0
-2 0.1 0.0
-2 0.15 0.0
-2 0.25 0.0
-2 0.2 0.0
-1.96653 0.266667 0.0
-1.96524 0.415385 0.0
-1.96485 0.315 0.0
-1.96348 0.363636 0.0
-1.96414 0.464286 0.0
-2 0.6 0.0
-1.96538 0.584615 0.0
-1.96538 0.538462 0.0
-1.94979 0 0.0
-1.96653 0.0666666 0.0
-1.93306 0.0333333 0.0
-2 0.8 0.0
-2 0.75 0.0
-2 0.7 0.0
-2 0.65 0.0
-1.96249 0.7375 0.0
-1.96666 0.833333 0.0
-2 1 0.0
-2 0.95 0.0
-1.96249 0.8875 0.0
-1.96666 0.933333 0.0
-1.96234 0.1125 0.0
-1.96653 0.166667 0.0
-1.93724 0.225 0.0
-1.92971 0.28 0.0
-1.93048 0.380769 0.0
-1.93048 0.423077 0.0
-1.89958 0.3375 0.0
-1.9292 0.484203 0.0
-1.92117 0.530907 0.0
-1.96363 0.636364 0.0
-1.93076 0.576923 0.0
-1.89958 0 0.0
-1.88703 0.0375 0.0
-1.90963 0.08 0.0
-1.86611 0.0666666 0.0
-1.93749 0.775 0.0
-1.93635 0.672727 0.0
-1.92999 0.72 0.0
-1.93332 0.866667 0.0
-1.92856 0.821429 0.0
-1.94999 1 0.0
-1.92499 0.9625 0.0
-1.92499 0.925 0.0
-1.89998 0.9 0.0
-1.89958 0.125 0.0
-1.92827 0.178571 0.0
-1.89958 0.233333 0.0
-1.89045 0.290909 0.0
-1.86096 0.311538 0.0
-1.89241 0.392857 0.0
-1.89334 0.448489 0.0
-1.85655 0.357143 0.0
-1.89614 0.653846 0.0
-1.89427 0.504121 0.0
-1.8952 0.559753 0.0
-1.89614 0.615385 0.0
-1.84937 0 0.0
-1.83264 0.0333333 0.0
-1.85655 0.107143 0.0
-1.81172 0.075 0.0
-1.89998 0.766667 0.0
-1.89089 0.709091 0.0
-1.87498 0.85 0.0
-1.85998 0.79 0.0
-1.88748 0.8125 0.0
-1.89998 1 0.0
-1.88748 0.9625 0.0
-1.86664 0.933333 0.0
-1.85712 0.892857 0.0
-1.87448 0.15 0.0
-1.86611 0.194444 0.0
-1.83264 0.133333 0.0
-1.83264 0.2625 0.0
-1.82068 0.321429 0.0
-1.85664 0.404762 0.0
-1.85674 0.452381 0.0
-1.85683 0.5 0.0
-1.81184 0.375 0.0
-1.85712 0.642857 0.0
-1.85693 0.547619 0.0
-1.85702 0.595238 0.0
-1.79917 0 0.0
-1.78482 0.0357143 0.0
-1.79917 0.116667 0.0
-1.76569 0.0666666 0.0
-1.85452 0.745455 0.0
-1.82689 0.692308 0.0
-1.81815 0.781818 0.0
-1.82497 0.825 0.0
-1.84997 1 0.0
-1.8333 0.958333 0.0
-1.81247 0.8875 0.0
-1.81247 0.925 0.0
-1.81742 0.218182 0.0
-1.82427 0.175 0.0
-1.77634 0.145455 0.0
-1.79144 0.242308 0.0
-1.78482 0.285714 0.0
-1.77469 0.332653 0.0
-1.81215 0.529762 0.0
-1.81194 0.422619 0.0
-1.81203 0.470238 0.0
-1.76714 0.392857 0.0
-1.81234 0.625 0.0
-1.79732 0.571429 0.0
-1.74896 0 0.0
-1.73222 0.0333333 0.0
-1.75398 0.105 0.0
-1.71883 0.07 0.0
-1.79227 0.730769 0.0
-1.78007 0.679121 0.0
-1.75765 0.769231 0.0
-1.78178 0.818182 0.0
-1.78996 0.86 0.0
-1.79996 1 0.0
-1.78568 0.964286 0.0
-1.76663 0.922222 0.0
-1.76569 0.1875 0.0
-1.73222 0.15 0.0
-1.74896 0.25 0.0
-1.73714 0.304762 0.0
-1.76743 0.537202 0.0
-1.72869 0.343878 0.0
-1.76732 0.485119 0.0
-1.76723 0.440476 0.0
-1.72243 0.410714 0.0
-1.76757 0.607143 0.0
-1.69875 0 0.0
-1.68369 0.035 0.0
-1.69875 0.1125 0.0
-1.66528 0.075 0.0
-1.74341 0.708974 0.0
-1.73324 0.665934 0.0
-1.70441 0.74478 0.0
-1.71423 0.785714 0.0
-1.72303 0.826923 0.0
-1.74541 0.854545 0.0
-1.74541 0.890909 0.0
-1.74996 1 0.0
-1.73745 0.9625 0.0
-1.71359 0.927273 0.0
-1.68716 0.153846 0.0
-1.7131 0.214286 0.0
-1.70725 0.275 0.0
-1.69712 0.321939 0.0
-1.72279 0.589286 0.0
-1.72261 0.5 0.0
-1.7227 0.544643 0.0
-1.6827 0.355102 0.0
-1.67773 0.428571 0.0
-1.70763 0.464286 0.0
-1.70369 0.62449 0.0
-1.64854 0 0.0
-1.63181 0.0375 0.0
-1.64137 0.142857 0.0
-1.61764 0.0769231 0.0
-1.69458 0.703846 0.0
-1.67471 0.657437 0.0
-1.66143 0.727637 0.0
-1.67125 0.768571 0.0
-1.67851 0.821429 0.0
-1.68841 0.861538 0.0
-1.70904 0.890909 0.0
-1.69995 1 0.0
-1.68176 0.963636 0.0
-1.67267 0.927273 0.0
-1.65427 0.187143 0.0
-1.66718 0.231429 0.0
-1.66554 0.3 0.0
-1.67802 0.571429 0.0
-1.67792 0.523809 0.0
-1.6367 0.366327 0.0
-1.63682 0.423469 0.0
-1.62568 0.502976 0.0
-1.6629 0.470238 0.0
-1.65254 0.618367 0.0
-1.6059 0.307143 0.0
-1.59833 0 0.0
-1.58288 0.0384615 0.0
-1.60563 0.169643 0.0
-1.58179 0.112271 0.0
-1.56964 0.0714286 0.0
-1.64574 0.690385 0.0
-1.62827 0.751429 0.0
-1.63371 0.791071 0.0
-1.64279 0.857143 0.0
-1.65378 0.896154 0.0
-1.64994 1 0.0
-1.6363 0.963636 0.0
-1.61916 0.930769 0.0
-1.61345 0.209107 0.0
-1.62126 0.248571 0.0
-1.56989 0.196429 0.0
-1.63324 0.553571 0.0
-1.58846 0.535714 0.0
-1.59408 0.361905 0.0
-1.59161 0.402211 0.0
-1.58832 0.464286 0.0
-1.61504 0.598581 0.0
-1.59683 0.64359 0.0
-1.57899 0.274107 0.0
-1.56176 0.322381 0.0
-1.54812 0 0.0
-1.53378 0.0357143 0.0
-1.54593 0.147619 0.0
-1.53385 0.0732143 0.0
-1.53393 0.110714 0.0
-1.58522 0.704286 0.0
-1.58709 0.745 0.0
-1.58896 0.785714 0.0
-1.60695 0.830357 0.0
-1.60707 0.892857 0.0
-1.59993 1 0.0
-1.58454 0.965385 0.0
-1.57135 0.928571 0.0
-1.55209 0.241071 0.0
-1.5291 0.198214 0.0
-1.56936 0.570918 0.0
-1.54369 0.517857 0.0
-1.5464 0.380952 0.0
-1.54564 0.427721 0.0
-1.54488 0.47449 0.0
-1.55026 0.606122 0.0
-1.54222 0.677143 0.0
-1.52943 0.282857 0.0
-1.52143 0.33619 0.0
-1.49792 0 0.0
-1.49802 0.05 0.0
-1.49822 0.15 0.0
-1.49312 0.1 0.0
-1.5423 0.717143 0.0
-1.54419 0.767857 0.0
-1.54727 0.819048 0.0
-1.57122 0.861905 0.0
-1.53553 0.914286 0.0
-1.54992 1 0.0
-1.53563 0.964286 0.0
-1.49842 0.25 0.0
-1.48831 0.2 0.0
-1.5214 0.558929 0.0
-1.49891 0.5 0.0
-1.49871 0.4 0.0
-1.47631 0.45 0.0
-1.49911 0.6 0.0
-1.49921 0.65 0.0
-1.49931 0.7 0.0
-1.48111 0.35 0.0
-1.48351 0.3 0.0
-1.44771 0 0.0
-1.44782 0.05 0.0
-1.44804 0.15 0.0
-1.44793 0.1 0.0
-1.49941 0.75 0.0
-1.49951 0.8 0.0
-1.49981 0.95 0.0
-1.49961 0.85 0.0
-1.49971 0.9 0.0
-1.49991 1 0.0
-1.44826 0.25 0.0
-1.43815 0.2 0.0
-1.47151 0.55 0.0
-1.44881 0.5 0.0
-1.44859 0.4 0.0
-1.42619 0.45 0.0
-1.44913 0.65 0.0
-1.44902 0.6 0.0
-1.44935 0.75 0.0
-1.44924 0.7 0.0
-1.43972 0.35 0.0
-1.43336 0.3 0.0
-1.3975 0 0.0
-1.39762 0.05 0.0
-1.39786 0.15 0.0
-1.39274 0.1 0.0
-1.44957 0.85 0.0
-1.44946 0.8 0.0
-1.4523 0.95 0.0
-1.44968 0.9 0.0
-1.4499 1 0.0
-1.3981 0.25 0.0
-1.38798 0.2 0.0
-1.42141 0.55 0.0
-1.3987 0.5 0.0
-1.39834 0.35 0.0
-1.37845 0.4 0.0
-1.37607 0.45 0.0
-1.40784 0.65 0.0
-1.39894 0.6 0.0
-1.41185 0.75 0.0
-1.39918 0.7 0.0
-1.38322 0.3 0.0
-1.34729 0 0.0
-1.34492 0.05 0.0
-1.34018 0.15 0.0
-1.34255 0.1 0.0
-1.40707 0.85 0.0
-1.39941 0.8 0.0
-1.39977 0.95 0.0
-1.39965 0.9 0.0
-1.39989 1 0.0
-1.33781 0.2 0.0
-1.33544 0.25 0.0
-1.37131 0.55 0.0
-1.34859 0.5 0.0
-1.33833 0.4 0.0
-1.3307 0.35 0.0
-1.32595 0.45 0.0
-1.34885 0.6 0.0
-1.36655 0.65 0.0
-1.36179 0.75 0.0
-1.34911 0.7 0.0
-1.33307 0.3 0.0
-1.29708 0 0.0
-1.29722 0.05 0.0
-1.2975 0.15 0.0
-1.29236 0.1 0.0
-1.35703 0.85 0.0
-1.34937 0.8 0.0
-1.34988 1 0.0
-1.34962 0.9 0.0
-1.35226 0.95 0.0
-1.28528 0.25 0.0
-1.28764 0.2 0.0
-1.28931 0.35 0.0
-1.32121 0.55 0.0
-1.29848 0.5 0.0
-1.28709 0.45 0.0
-1.2982 0.4 0.0
-1.29876 0.6 0.0
-1.31647 0.65 0.0
-1.29918 0.75 0.0
-1.29904 0.7 0.0
-1.28292 0.3 0.0
-1.24687 0 0.0
-1.24702 0.05 0.0
-1.24717 0.1 0.0
-1.24732 0.15 0.0
-1.29946 0.85 0.0
-1.29932 0.8 0.0
-1.29987 1 0.0
-1.29974 0.95 0.0
-1.30462 0.9 0.0
-1.24762 0.25 0.0
-1.23747 0.2 0.0
-1.24792 0.35 0.0
-1.22807 0.4 0.0
-1.27111 0.55 0.0
-1.24837 0.5 0.0
-1.24822 0.45 0.0
-1.24867 0.6 0.0
-1.26639 0.65 0.0
-1.26167 0.75 0.0
-1.24897 0.7 0.0
-1.23277 0.3 0.0
-1.19667 0 0.0
-1.19683 0.05 0.0
-1.18964 0.15 0.0
-1.19198 0.1 0.0
-1.25695 0.85 0.0
-1.24927 0.8 0.0
-1.25223 0.95 0.0
-1.24987 1 0.0
-1.24957 0.9 0.0
-1.1873 0.2 0.0
-1.18496 0.25 0.0
-1.18028 0.35 0.0
-1.17794 0.4 0.0
-1.1981 0.45 0.0
-1.19842 0.55 0.0
-1.19826 0.5 0.0
-1.19858 0.6 0.0
-1.19874 0.65 0.0
-1.19906 0.75 0.0
-1.1989 0.7 0.0
-1.18262 0.3 0.0
-1.14646 0 0.0
-1.14663 0.05 0.0
-1.1418 0.1 0.0
-1.13713 0.2 0.0
-1.14697 0.15 0.0
-1.20691 0.85 0.0
-1.20926 0.8 0.0
-1.20221 0.95 0.0
-1.19986 1 0.0
-1.20456 0.9 0.0
-1.13997 0.3 0.0
-1.14731 0.25 0.0
-1.13781 0.4 0.0
-1.13014 0.35 0.0
-1.12548 0.45 0.0
-1.14815 0.5 0.0
-1.15962 0.55 0.0
-1.14849 0.6 0.0
-1.15745 0.65 0.0
-1.16155 0.75 0.0
-1.14917 0.8 0.0
-1.14883 0.7 0.0
-1.09625 0 0.0
-1.09661 0.1 0.0
-1.09393 0.05 0.0
-1.09697 0.2 0.0
-1.08929 0.15 0.0
-1.15687 0.85 0.0
-1.14985 1 0.0
-1.15219 0.95 0.0
-1.14951 0.9 0.0
-1.09733 0.3 0.0
-1.08465 0.25 0.0
-1.09769 0.4 0.0
-1.08 0.35 0.0
-1.08661 0.45 0.0
-1.09804 0.5 0.0
-1.12082 0.55 0.0
-1.10916 0.8 0.0
-1.10629 0.7 0.0
-1.0984 0.6 0.0
-1.11616 0.65 0.0
-1.11149 0.75 0.0
-1.04604 0 0.0
-1.04623 0.05 0.0
-1.04642 0.1 0.0
-1.0468 0.2 0.0
-1.03911 0.15 0.0
-1.09948 0.9 0.0
-1.0993 0.85 0.0
-1.09984 1 0.0
-1.09966 0.95 0.0
-1.04718 0.3 0.0
-1.03449 0.25 0.0
-1.04756 0.4 0.0
-1.02986 0.35 0.0
-1.04775 0.45 0.0
-1.04794 0.5 0.0
-1.04813 0.55 0.0
-1.05911 0.8 0.0
-1.04831 0.6 0.0
-1.06376 0.7 0.0
-1.0485 0.65 0.0
-1.04888 0.75 0.0
-0.995833 0 0.0
-0.991231 0.1 0.0
-0.996033 0.05 0.0
-0.986629 0.2 0.0
-0.98893 0.15 0.0
-1.05447 0.9 0.0
-1.04926 0.85 0.0
-1.04983 1 0.0
-1.04964 0.95 0.0
-0.984328 0.25 0.0
-0.99703 0.3 0.0
-0.997429 0.4 0.0
-0.997628 0.45 0.0
-0.979726 0.35 0.0
-0.997827 0.5 0.0
-0.998027 0.55 0.0
-0.998226 0.6 0.0
-0.961416 0.475 0.0
-1.00907 0.8 0.0
-0.998426 0.65 0.0
-0.998625 0.7 0.0
-1.01138 0.75 0.0
-0.945625 0 0.0
-0.946044 0.1 0.0
-0.943334 0.05 0.0
-0.946463 0.2 0.0
-0.938752 0.15 0.0
-1.00444 0.9 0.0
-1.00675 0.85 0.0
-0.999821 1 0.0
-1.00213 0.95 0.0
-0.93417 0.25 0.0
-0.946881 0.3 0.0
-0.9473 0.4 0.0
-0.929588 0.35 0.0
-0.925005 0.45 0.0
-0.960371 0.525 0.0
-0.959325 0.575 0.0
-0.958279 0.625 0.0
-0.922714 0.5 0.0
-0.959017 0.8 0.0
-0.957233 0.675 0.0
-0.952999 0.7125 0.0
-0.948766 0.75 0.0
-0.895417 0 0.0
-0.895855 0.1 0.0
-0.893136 0.05 0.0
-0.896294 0.2 0.0
-0.888573 0.15 0.0
-0.949184 0.85 0.0
-0.954415 0.9 0.0
-0.949812 1 0.0
-0.949603 0.95 0.0
-0.884011 0.25 0.0
-0.896733 0.3 0.0
-0.874887 0.45 0.0
-0.879449 0.35 0.0
-0.897171 0.4 0.0
-0.920423 0.55 0.0
-0.918132 0.6 0.0
-0.915841 0.65 0.0
-0.872606 0.5 0.0
-0.908968 0.8 0.0
-0.91355 0.7 0.0
-0.898707 0.75 0.0
-0.845208 0 0.0
-0.845438 0.05 0.0
-0.845667 0.1 0.0
-0.845896 0.15 0.0
-0.833853 0.25 0.0
-0.846126 0.2 0.0
-0.899146 0.85 0.0
-0.904386 0.9 0.0
-0.899584 0.95 0.0
-0.899804 1 0.0
-0.838062 0.35 0.0
[...]
POINT_DATA 10839
VECTORS Velocity float
0.21 0 0.0
0.24 0 0.0
0.2275 0 0.0
0.2475 0 0.0
0.25 0 0.0
0.2475 0 0.0
0 0 0.0
0.0475 0 0.0
0.1275 0 0.0
0.09 0 0.0
0.09 0 0.0
0.1275 0 0.0
0.1875 0 0.0
0.16 0 0.0
0.195557 -2.2801e-05 0.0
0.242841 -3.11529e-05 0.0
0.215776 -2.71595e-05 0.0
0.231406 -3.06325e-05 0.0
0.248725 -3.31752e-05 0.0
0.24 0 0.0
0.24284 -3.10813e-05 0.0
0.24852 -3.19474e-05 0.0
0 0 0.0
0.0622238 -3.94952e-06 0.0
0.0322267 -2.60881e-06 0.0
0.16 0 0.0
0.1875 0 0.0
0.21 0 0.0
0.2275 0 0.0
0.193592 -2.55915e-05 0.0
0.138887 -1.41768e-05 0.0
0 0 0.0
0.0475 0 0.0
0.0998416 -9.82986e-06 0.0
0.0622206 -3.9934e-06 0.0
0.0998461 -1.02737e-05 0.0
0.138891 -1.43061e-05 0.0
0.17438 -3.59296e-05 0.0
0.201605 -4.92753e-05 0.0
0.235787 -6.02326e-05 0.0
0.244085 -6.30421e-05 0.0
0.223601 -8.07692e-05 0.0
0.249751 -6.58771e-05 0.0
0.249044 -7.34193e-05 0.0
0.231404 -3.11302e-05 0.0
0.244081 -6.229e-05 0.0
0 0 0.0
0.0361073 -5.05467e-06 0.0
0.073612 -1.41535e-05 0.0
0.0622477 -1.55155e-05 0.0
0.17437 -3.53932e-05 0.0
0.220162 -4.92726e-05 0.0
0.201595 -4.93429e-05 0.0
0.115549 -2.11696e-05 0.0
0.146676 -3.28564e-05 0.0
0 0 0.0
0.0360878 -3.40127e-06 0.0
0.0693666 -1.10554e-05 0.0
0.0899843 -2.19826e-05 0.0
0.10939 -2.97754e-05 0.0
0.146691 -3.22275e-05 0.0
0.178901 -6.03212e-05 0.0
0.206293 -7.89751e-05 0.0
0.2145 -0.000106549 0.0
0.238526 -9.45136e-05 0.0
0.24735 -9.84446e-05 0.0
0.229606 -0.000120387 0.0
0.226324 -8.48721e-05 0.0
0.249983 -9.8936e-05 0.0
0.246427 -9.62382e-05 0.0
0.23668 -9.05773e-05 0.0
0 0 0.0
0.032249 -5.71887e-06 0.0
0.0956949 -3.38339e-05 0.0
0.0694264 -2.54902e-05 0.0
0.178877 -5.93911e-05 0.0
0.206269 -7.95634e-05 0.0
0.127477 -4.5719e-05 0.0
0.165874 -7.52087e-05 0.0
0.152326 -5.37791e-05 0.0
0 0 0.0
0.0360804 -4.89498e-06 0.0
0.0621972 -1.5348e-05 0.0
0.0956317 -3.44643e-05 0.0
0.127523 -4.61694e-05 0.0
0.15666 -6.71835e-05 0.0
0.115598 -5.30454e-05 0.0
0.193625 -0.000111097 0.0
0.21814 -0.000140763 0.0
0.240939 -0.00012832 0.0
0.247737 -0.000133109 0.0
0.25 -0.00013457 0.0
0.234397 -0.000163094 0.0
0.229577 -0.000118709 0.0
0.247728 -0.000132811 0.0
0.24092 -0.000128087 0.0
0 0 0.0
0.0344845 -7.93097e-06 0.0
0.103118 -5.21442e-05 0.0
0.0622987 -2.58341e-05 0.0
0.189728 -9.4313e-05 0.0
0.21299 -0.000131986 0.0
0.170536 -0.000102174 0.0
0.144332 -7.57339e-05 0.0
0 0 0.0
0.0398999 -8.44194e-06 0.0
0.0997892 -4.73524e-05 0.0
0.0693241 -2.50637e-05 0.0
0.170622 -0.000102315 0.0
0.144419 -7.7383e-05 0.0
0.124373 -7.85222e-05 0.0
0.183647 -0.000129533 0.0
0.204129 -0.000155248 0.0
0.222036 -0.000182972 0.0
0.249109 -0.000176918 0.0
0.244026 -0.000172179 0.0
0.249119 -0.000176928 0.0
0.238549 -0.000207988 0.0
0.234354 -0.00016212 0.0
0.244883 -0.000186564 0.0
0 0 0.0
0.0322879 -8.40628e-06 0.0
0.0940692 -5.48583e-05 0.0
0.0652111 -3.27382e-05 0.0
0.196698 -0.000141695 0.0
0.217873 -0.00017431 0.0
0.177441 -0.000143885 0.0
0.148693 -0.000100171 0.0
0.120332 -6.99964e-05 0.0
0 0 0.0
0.0343936 -8.00524e-06 0.0
0.0716487 -3.28198e-05 0.0
0.152421 -0.000112465 0.0
0.127609 -9.76884e-05 0.0
0.187575 -0.000160931 0.0
0.211948 -0.000200724 0.0
0.248606 -0.000219953 0.0
0.225683 -0.00022759 0.0
0.249782 -0.00022156 0.0
0.246473 -0.000217806 0.0
0.242063 -0.000255262 0.0
0.238491 -0.000207387 0.0
0 0 0.0
0.0338686 -1.05509e-05 0.0
0.0999857 -7.34585e-05 0.0
0.0695363 -4.36736e-05 0.0
0.206263 -0.000187821 0.0
0.222407 -0.000219159 0.0
0.18998 -0.000195337 0.0
0.168259 -0.000157546 0.0
0.143009 -0.000120655 0.0
0.124199 -8.88546e-05 0.0
0.0970893 -5.95704e-05 0.0
0 0 0.0
0.0360251 -1.02105e-05 0.0
0.0673214 -3.52073e-05 0.0
0.130327 -0.000118285 0.0
0.168477 -0.000158352 0.0
0.199468 -0.000206882 0.0
0.218375 -0.000243051 0.0
0.241993 -0.000255876 0.0
0.25 -0.000267168 0.0
0.247989 -0.000264033 0.0
0.229078 -0.000274491 0.0
0.244936 -0.000304492 0.0
0.24874 -0.000280496 0.0
0.234448 -0.000262283 0.0
0 0 0.0
0.0362247 -1.36226e-05 0.0
0.122649 -0.00012134 0.0
0.0712179 -5.1744e-05 0.0
0.208354 -0.000230165 0.0
0.22513 -0.000274298 0.0
0.198054 -0.000239178 0.0
0.177731 -0.000197819 0.0
0.146533 -0.000145603 0.0
0.119139 -0.000101498 0.0
0.097058 -6.76593e-05 0.0
0 0 0.0
0.0349446 -1.14411e-05 0.0
0.0672861 -3.96848e-05 0.0
0.152293 -0.000165775 0.0
0.178011 -0.000202555 0.0
0.210111 -0.000256575 0.0
0.24486 -0.000304405 0.0
0.24942 -0.000312758 0.0
0.232222 -0.000323479 0.0
0.244195 -0.000346918 0.0
0.249989 -0.00037049 0.0
0.249131 -0.000328786 0.0
0.235916 -0.000314719 0.0
0.212957 -0.000314022 0.0
0 0 0.0
0.0371514 -1.60691e-05 0.0
0.141099 -0.000169296 0.0
0.0999441 -0.000102104 0.0
0.0665859 -5.04551e-05 0.0
0.213634 -0.000280608 0.0
0.186614 -0.000244196 0.0
0.165093 -0.000198505 0.0
0.12225 -0.000121944 0.0
0.0928755 -7.43078e-05 0.0
0 0 0.0
0.0349166 -1.27851e-05 0.0
0.0642374 -4.21757e-05 0.0
0.165588 -0.000212386 0.0
0.18696 -0.000249768 0.0
0.158112 -0.00022246 0.0
0.247093 -0.000356336 0.0
0.248692 -0.000410201 0.0
0.231047 -0.000363749 0.0
0.240522 -0.000388317 0.0
0.248756 -0.000409863 0.0
0.240206 -0.000362591 0.0
0.229261 -0.000356382 0.0
0.199173 -0.000307556 0.0
0.218627 -0.000368019 0.0
0 0 0.0
0.0346374 -1.5772e-05 0.0
0.126155 -0.000164678 0.0
0.0681622 -5.70776e-05 0.0
0.0988032 -0.000111312 0.0
0.20809 -0.000321592 0.0
0.189768 -0.000280175 0.0
0.168136 -0.000232333 0.0
0.14063 -0.000167967 0.0
0.0954208 -8.85297e-05 0.0
0 0 0.0
0.0332623 -1.30926e-05 0.0
0.0660695 -5.02696e-05 0.0
0.183213 -0.000290704 0.0
0.159249 -0.000249286 0.0
0.244901 -0.000423137 0.0
0.249661 -0.000464899 0.0
0.235956 -0.000426321 0.0
0.244855 -0.0004507 0.0
0.249377 -0.000463717 0.0
0.238625 -0.000428627 0.0
0.218428 -0.000387305 0.0
0.203094 -0.000359418 0.0
0.223363 -0.000421298 0.0
0 0 0.0
0.0477899 -3.15564e-05 0.0
0.127903 -0.000188014 0.0
0.0904048 -0.000104506 0.0
0.202617 -0.000346076 0.0
0.177978 -0.000284375 0.0
0.1479 -0.000213065 0.0
0.118733 -0.000139354 0.0
0.0780433 -7.42715e-05 0.0
0 0 0.0
0.0342429 -1.54337e-05 0.0
0.187819 -0.00034476 0.0
0.160385 -0.000277692 0.0
0.246454 -0.000484183 0.0
0.25 -0.00052203 0.0
0.240134 -0.000492857 0.0
0.247574 -0.000543726 0.0
0.239865 -0.000492438 0.0
0.2273 -0.000455839 0.0
0.209739 -0.000405345 0.0
0.227715 -0.000478644 0.0
0.210279 -0.000422585 0.0
0 0 0.0
0.0478503 -3.52037e-05 0.0
0.127995 -0.000210133 0.0
0.0904836 -0.000114977 0.0
0.187182 -0.000342886 0.0
0.159633 -0.000268449 0.0
0.047214 -3.09157e-05 0.0
0.127101 -0.000185348 0.0
0.0896077 -0.000102223 0.0
0 0 0.0
0.187892 -0.000387913 0.0
0.160472 -0.000311149 0.0
0.247423 -0.000549982 0.0
0.249999 -0.000588841 0.0
0.240166 -0.000556264 0.0
0.247591 -0.000611906 0.0
0.227254 -0.000513861 0.0
0.239833 -0.000555163 0.0
0.187109 -0.000385669 0.0
0.209679 -0.00045662 0.0
0.227754 -0.000525956 0.0
0.210342 -0.000475535 0.0
0 0 0.0
0.0479168 -3.86269e-05 0.0
0.128097 -0.000233847 0.0
0.0905907 -0.000129024 0.0
0.127009 -0.000207887 0.0
0.159549 -0.000301535 0.0
0.0471576 -3.42845e-05 0.0
0.0895215 -0.000113677 0.0
0 0 0.0
0.187976 -0.000433658 0.0
0.16057 -0.000347186 0.0
0.247406 -0.00061797 0.0
0.249999 -0.000660359 0.0
0.227797 -0.000577446 0.0
0.240215 -0.000651476 0.0
0.247609 -0.000685463 0.0
0.227211 -0.00056311 0.0
0.239798 -0.00062254 0.0
0.187048 -0.000418592 0.0
0.20961 -0.000511351 0.0
0.210412 -0.000532088 0.0
0 0 0.0
0.0479948 -4.29629e-05 0.0
0.12823 -0.000263262 0.0
0.0906998 -0.000142586 0.0
0.126923 -0.000227225 0.0
0.159454 -0.000336052 0.0
0.0470892 -3.80733e-05 0.0
0.0894261 -0.000125532 0.0
0 0 0.0
0.16068 -0.000385434 0.0
0.188094 -0.00049496 0.0
0.247387 -0.000690875 0.0
0.249998 -0.000737153 0.0
0.240248 -0.000711858 0.0
0.227879 -0.000668632 0.0
0.247629 -0.000763506 0.0
0.239758 -0.000694359 0.0
0.227164 -0.000616813 0.0
0.186957 -0.00046602 0.0
0.209533 -0.000569562 0.0
0.210492 -0.000593227 0.0
0 0 0.0
0.0480733 -4.73914e-05 0.0
0.12834 -0.00028718 0.0
0.0908204 -0.000157376 0.0
0.126812 -0.00025158 0.0
0.159347 -0.000373332 0.0
0 0 0.0
0.0893195 -0.000138841 0.0
0.0470202 -4.18248e-05 0.0
0.188202 -0.000550871 0.0
0.160803 -0.000427504 0.0
0.227935 -0.000729439 0.0
0.247365 -0.000769919 0.0
0.249998 -0.000820335 0.0
0.247647 -0.000829305 0.0
0.240284 -0.000774989 0.0
0.239713 -0.000772177 0.0
0.2271 -0.000686387 0.0
0.186828 -0.000529989 0.0
0.209447 -0.000633174 0.0
0.210581 -0.000658563 0.0
0 0 0.0
0.0481628 -5.22512e-05 0.0
0.0909399 -0.000171543 0.0
0.128482 -0.00031695 0.0
0.126668 -0.000281871 0.0
0.159228 -0.000413337 0.0
0 0 0.0
0.0469374 -4.59778e-05 0.0
0.0892149 -0.000151098 0.0
0.188292 -0.000594394 0.0
0.16094 -0.000473175 0.0
0.227995 -0.000794723 0.0
0.240354 -0.000895921 0.0
0.24734 -0.000855605 0.0
0.249997 -0.000909942 0.0
0.247667 -0.000898536 0.0
0.239662 -0.000856364 0.0
0.227029 -0.000761837 0.0
0.186742 -0.000572191 0.0
0.20935 -0.000700952 0.0
0.210681 -0.0007301 0.0
0 0 0.0
0.0482624 -5.73705e-05 0.0
0.128664 -0.000355778 0.0
0.0911016 -0.00019167 0.0
0.12655 -0.000306333 0.0
0.159095 -0.000456593 0.0
0.0468548 -4.99015e-05 0.0
0 0 0.0
0.0890741 -0.000167575 0.0
0.161091 -0.000522898 0.0
0.188455 -0.000673194 0.0
0.228108 -0.000911137 0.0
0.240412 -0.000993343 0.0
0.247693 -0.000995887 0.0
0.2473 -0.000990518 0.0
0.249996 -0.00100898 0.0
0.239606 -0.000949762 0.0
0.22692 -0.000872061 0.0
0.186583 -0.000647315 0.0
0.209243 -0.00077581 0.0
0.210791 -0.00080741 0.0
0 0 0.0
0.0483709 -6.29895e-05 0.0
0.0912637 -0.000210332 0.0
0.161259 -0.000575651 0.0
0.128813 -0.000385943 0.0
0.126397 -0.000337103 0.0
0.158978 -0.000493714 0.0
0.0467589 -5.50202e-05 0.0
0 0 0.0
0.0889453 -0.000182557 0.0
0.210894 -0.00087906 0.0
0.188566 -0.000726624 0.0
0.240462 -0.00107552 0.0
0.228201 -0.00100952 0.0
0.247738 -0.00114979 0.0
0.249995 -0.00111537 0.0
0.247275 -0.00107078 0.0
0.239544 -0.00104952 0.0
0.226845 -0.000946641 0.0
0.186475 -0.000696788 0.0
0.158785 -0.000554837 0.0
0.209124 -0.000855892 0.0
0 0 0.0
0.0914262 -0.000230091 0.0
0.0484987 -7.01063e-05 0.0
0.161406 -0.000623978 0.0
0.129035 -0.000433123 0.0
0.126229 -0.000370983 0.0
0 0 0.0
0.046654 -6.03207e-05 0.0
0.0887739 -0.000202231 0.0
0.211007 -0.000954969 0.0
0.188767 -0.000823474 0.0
0.240516 -0.00116386 0.0
0.228305 -0.00111571 0.0
0.247764 -0.00124416 0.0
0.249993 -0.0012326 0.0
0.247248 -0.00115883 0.0
0.158641 -0.000596955 0.0
0.209012 -0.000929658 0.0
0.239474 -0.00115748 0.0
0.226762 -0.0010277 0.0
0.18632 -0.000768303 0.0
0 0 0.0
0.0486247 -7.65525e-05 0.0
0.0916205 -0.00025313 0.0
0.161608 -0.000687339 0.0
0.129252 -0.000477788 0.0
0.0886006 -0.000221167 0.0
0.126014 -0.000413255 0.0
0 0 0.0
0.0465335 -6.64757e-05 0.0
0.211152 -0.00105373 0.0
0.18895 -0.000909213 0.0
0.24059 -0.00128459 0.0
0.22842 -0.00123215 0.0
0.247793 -0.00134493 0.0
0.249993 -0.00136171 0.0
0.247192 -0.00133425 0.0
0.158447 -0.000656013 0.0
0.239397 -0.00127772 0.0
0.208891 -0.00100711 0.0
0.226614 -0.00117369 0.0
0.186102 -0.000868837 0.0
0 0 0.0
0.0918591 -0.000281935 0.0
0.0487705 -8.43681e-05 0.0
0.161876 -0.000772011 0.0
0.129489 -0.000526926 0.0
0.088431 -0.000240323 0.0
0.125805 -0.000454637 0.0
0 0 0.0
0.0464064 -7.29394e-05 0.0
0.189149 -0.00100422 0.0
0.211313 -0.00116307 0.0
0.240673 -0.00141897 0.0
0.247834 -0.00148162 0.0
0.228546 -0.00135925 0.0
0.24999 -0.0014999 0.0
0.247149 -0.0014745 0.0
0.239312 -0.00140682 0.0
0.249551 -0.00160724 0.0
0.158231 -0.000720527 0.0
0.226488 -0.00129429 0.0
0.208682 -0.00114133 0.0
0.185957 -0.000933314 0.0
0 0 0.0
0.0920773 -0.000308464 0.0
0.0489417 -9.41475e-05 0.0
0.162076 -0.000835823 0.0
0.129751 -0.000581141 0.0
0.0882254 -0.000263176 0.0
0.125612 -0.000492272 0.0
0 0 0.0
0.0462754 -7.9573e-05 0.0
0.189371 -0.0011077 0.0
0.211491 -0.00128341 0.0
0.24076 -0.00156344 0.0
0.228687 -0.00150098 0.0
0.247898 -0.0017087 0.0
0.249173 -0.00160709 0.0
0.243797 -0.00155959 0.0
0.23343 -0.00146448 0.0
0.249985 -0.00173814 0.0
0.157994 -0.000791082 0.0
0.218077 -0.00132534 0.0
0.203282 -0.00119757 0.0
0.185692 -0.00104944 0.0
0 0 0.0
0.0923389 -0.000340472 0.0
0.0491196 -0.000103444 0.0
0.162346 -0.000922509 0.0
0.130041 -0.000641845 0.0
0.125325 -0.000547507 0.0
0.0879991 -0.000288486 0.0
0 0 0.0
0.0461176 -8.68341e-05 0.0
0.189616 -0.00122257 0.0
0.211686 -0.00141606 0.0
0.247945 -0.0018818 0.0
0.22884 -0.00165549 0.0
0.240862 -0.00172522 0.0
0.247069 -0.00171625 0.0
0.239155 -0.0016425 0.0
0.22625 -0.00151797 0.0
0.249978 -0.00191518 0.0
0.157731 -0.000869522 0.0
0.208367 -0.00134333 0.0
0.185451 -0.00115433 0.0
0 0 0.0
0.0493074 -0.000113649 0.0
0.0926286 -0.000376863 0.0
0.130311 -0.000698079 0.0
0.189884 -0.00134733 0.0
0.162645 -0.0010183 0.0
0.125048 -0.000600324 0.0
0.0877505 -0.000316208 0.0
0.0459507 -9.50622e-05 0.0
0 0 0.0
0.228979 -0.00179581 0.0
0.211903 -0.00156414 0.0
0.247988 -0.00203126 0.0
0.24097 -0.00190511 0.0
0.226085 -0.00166974 0.0
0.247007 -0.00188989 0.0
0.239039 -0.0018082 0.0
0.249974 -0.00210994 0.0
0.185191 -0.00126726 0.0
0.157383 -0.000970471 0.0
0.208084 -0.00151952 0.0
0 0 0.0
0.0495256 -0.00012642 0.0
0.0929837 -0.000421166 0.0
0.130657 -0.000770244 0.0
0.190104 -0.00145414 0.0
0.163044 -0.00115132 0.0
0.124745 -0.000657078 0.0
0.0874514 -0.000349193 0.0
0.0457701 -0.000103523 0.0
0 0 0.0
0.124409 -0.000721173 0.0
0.229128 -0.00194251 0.0
0.212216 -0.00178235 0.0
0.241139 -0.00218783 0.0
0.248033 -0.00218903 0.0
0.225837 -0.00189789 0.0
0.238916 -0.00198857 0.0
0.246942 -0.00208267 0.0
0.249964 -0.00232432 0.0
0.184901 -0.00139157 0.0
0.157058 -0.00106804 0.0
0.207841 -0.00167364 0.0
0 0 0.0
0.0497667 -0.000139914 0.0
0.093343 -0.000466851 0.0
0.131041 -0.000852587 0.0
0.190425 -0.00160371 0.0
0.163418 -0.00127442 0.0
0.0455688 -0.000114193 0.0
0.0871475 -0.000383311 0.0
0 0 0.0
0.1241 -0.000778019 0.0
0.229327 -0.00214725 0.0
0.212488 -0.00196996 0.0
0.241275 -0.00241299 0.0
0.248092 -0.002416 0.0
0.225662 -0.00205471 0.0
0.238779 -0.00218705 0.0
0.249956 -0.00256187 0.0
0.246832 -0.00239518 0.0
0.184663 -0.00149021 0.0
0.156701 -0.00117221 0.0
0.207573 -0.00183789 0.0
0 0 0.0
0.0500321 -0.000154702 0.0
0.093738 -0.000516437 0.0
0.131529 -0.000956838 0.0
0.190867 -0.0018159 0.0
0.212784 -0.00217927 0.0
0.163827 -0.00141247 0.0
0.0453638 -0.000124143 0.0
0.0868181 -0.000419239 0.0
0 0 0.0
0.123704 -0.000852452 0.0
0.229623 -0.00245015 0.0
0.241391 -0.00261468 0.0
0.248158 -0.00266542 0.0
0.249944 -0.00275807 0.0
0.225479 -0.00221981 0.0
0.23862 -0.00240933 0.0
0.246744 -0.00263711 0.0
0.156308 -0.00128728 0.0
0.184321 -0.00163604 0.0
0.207277 -0.00201825 0.0
0 0 0.0
0.0503464 -0.000173603 0.0
0.0941797 -0.000575118 0.0
0.132007 -0.00106399 0.0
0.191165 -0.00196244 0.0
0.213108 -0.00240703 0.0
0.164281 -0.00156591 0.0
0.0451267 -0.000135284 0.0
0.086456 -0.000458603 0.0
0 0 0.0
0.155968 -0.00138042 0.0
0.086061 -0.000499545 0.0
0.1232 -0.000945254 0.0
0.22987 -0.00271924 0.0
0.241514 -0.00282293 0.0
0.24826 -0.00307225 0.0
0.249936 -0.00296371 0.0
0.24667 -0.00284314 0.0
0.225233 -0.00243754 0.0
0.238379 -0.00275409 0.0
0.183843 -0.00183456 0.0
0.207001 -0.00219026 0.0
0.230092 -0.0029482 0.0
0 0 0.0
0.0506787 -0.000193654 0.0
0.132536 -0.0011846 0.0
0.0946691 -0.000642403 0.0
0.213469 -0.00266885 0.0
0.191702 -0.00222954 0.0
0.16478 -0.00173795 0.0
0.0448565 -0.000147758 0.0
0 0 0.0
0.183524 -0.00196969 0.0
0.155503 -0.00151365 0.0
0.122712 -0.00103662 0.0
0.0445695 -0.000162256 0.0
0.0856253 -0.000547225 0.0
0.241685 -0.00311962 0.0
0.248319 -0.00331833 0.0
0.249913 -0.0032664 0.0
0.249897 -0.00351723 0.0
0.246585 -0.00306177 0.0
0.224955 -0.00268023 0.0
0.238172 -0.00303062 0.0
0.206699 -0.00236517 0.0
0.230322 -0.00320123 0.0
0.0510336 -0.000216922 0.0
0 0 0.0
0.133029 -0.00129649 0.0
0.0952105 -0.000716581 0.0
0.21386 -0.00295751 0.0
0.192063 -0.00241337 0.0
0.165334 -0.00193365 0.0
0 0 0.0
0.183067 -0.00215394 0.0
0.154885 -0.00168496 0.0
0.122266 -0.0011134 0.0
0.0442773 -0.000176062 0.0
0.0851517 -0.00059721 0.0
0.241939 -0.00359013 0.0
0.248381 -0.00357608 0.0
0.249872 -0.00378056 0.0
0.24641 -0.00350991 0.0
0.224654 -0.00294091 0.0
0.237953 -0.00333199 0.0
0.206189 -0.00266949 0.0
0.230637 -0.00354728 0.0
0 0 0.0
0.0514468 -0.000244845 0.0
0.133666 -0.00144803 0.0
0.0957573 -0.000795401 0.0
0.165943 -0.00215054 0.0
0.21429 -0.00328486 0.0
0.192717 -0.00274909 0.0
0 0 0.0
0 0 0.0
0.182559 -0.00236029 0.0
0.154311 -0.00184642 0.0
0.121691 -0.00121781 0.0
0.0846342 -0.00065116 0.0
0.0439414 -0.00019099 0.0
0.242141 -0.00396942 0.0
0.248458 -0.00394861 0.0
0.237754 -0.00359229 0.0
0.249837 -0.00416291 0.0
0.246263 -0.003867 0.0
0.224315 -0.00323105 0.0
0.205744 -0.00292461 0.0
0.242308 -0.00430662 0.0
0.230964 -0.00393189 0.0
0.0519065 -0.000273818 0.0
0.0964209 -0.000887742 0.0
0.134378 -0.00162495 0.0
0.16648 -0.00235337 0.0
0.214761 -0.00364738 0.0
0.193151 -0.00299079 0.0
0 0 0.0
0 0 0.0
0.153815 -0.00197549 0.0
0.181856 -0.00263475 0.0
0.0841262 -0.000700723 0.0
0.120965 -0.00134491 0.0
0.043574 -0.00020877 0.0
0.24858 -0.00454197 0.0
0.249784 -0.00458878 0.0
0.205259 -0.0032021 0.0
0.237536 -0.00386571 0.0
0.24614 -0.00416727 0.0
0.2238 -0.00365693 0.0
0.242489 -0.0046578 0.0
0.231466 -0.00452181 0.0
0.215269 -0.00405895 0.0
0.0524572 -0.00031121 0.0
0.0971696 -0.00100399 0.0
0.135292 -0.00186079 0.0
0.167213 -0.00262739 0.0
0.193938 -0.00343241 0.0
0 0 0.0
0 0 0.0
0.152999 -0.00219095 0.0
0.181228 -0.00288384 0.0
0.0834518 -0.000769513 0.0
0.120269 -0.0014625 0.0
0.0431587 -0.000225806 0.0
0.245999 -0.00448726 0.0
0.249722 -0.00504606 0.0
0.248652 -0.00501924 0.0
0.204723 -0.00350064 0.0
0.237241 -0.00424447 0.0
0.223369 -0.00401691 0.0
0.180538 -0.0031483 0.0
0.242808 -0.00535805 0.0
0 0 0.0
0.231847 -0.00503328 0.0
0.194639 -0.00384839 0.0
0.215815 -0.00451783 0.0
0.0530319 -0.000355735 0.0
0.136052 -0.00207215 0.0
0.0981078 -0.00116529 0.0
0.168187 -0.00303662 0.0
0 0 0.0
0 0 0.0
0 0 0.0
0 0 0.0
0 0 0.0
0.0427493 -0.000242026 0.0
0.119505 -0.0015929 0.0
0.152244 -0.00239005 0.0
0.0828505 -0.000829143 0.0
0.245794 -0.00492122 0.0
0.249638 -0.00555075 0.0
0.248728 -0.00554147 0.0
0.222975 -0.00431798 0.0
0.204127 -0.00382415 0.0
0.236755 -0.0048215 0.0
0.203578 -0.00411633 0.0
0.179977 -0.00335369 0.0
0.243037 -0.00593596 0.0
0.23226 -0.00558695 0.0
0 0 0.0
7.08178e-05 -3.57515e-05 0.0
0 0 0.0
-0.000104014 0.000130566 0.0
0.216408 -0.00504555 0.0
0.195212 -0.00419534 0.0
0.0537499 -0.000415715 0.0
0.137038 -0.00235455 0.0
0.0990806 -0.00134512 0.0
0.169107 -0.00344363 0.0
0 0 0.0
0 0 0.0
0 0 0.0
-5.86304e-05 -0.000102172 0.0
3.69733e-05 -0.000176937 0.0
0.000134457 -0.000146672 0.0
0 0 0.0
0.0422802 -0.000262875 0.0
0.118807 -0.00170572 0.0
0.15142 -0.00259826 0.0
0.0820537 -0.000903864 0.0
0.245565 -0.0054045 0.0
0.249529 -0.006098 0.0
0.248789 -0.00610736 0.0
0.22255 -0.0046448 0.0
0.236447 -0.00519315 0.0
0.202979 -0.00441811 0.0
0.178956 -0.00371941 0.0
0.243274 -0.00656331 0.0
0.23578 -0.00626969 0.0
0.225419 -0.00585763 0.0
0 0 0.0
0.000189453 -4.91264e-05 0.0
0 0 0.0
0 0 0.0
-0.00041524 0.000719155 0.0
-0.000308378 0.000207846 0.0
0.212174 -0.00536307 0.0
0.196014 -0.00472683 0.0
0.100076 -0.00154384 0.0
0.0545145 -0.0004954 0.0
0.13814 -0.0027077 0.0
0.1701 -0.00392241 0.0
0 0 0.0
-1.28527e-06 -0.000274194 0.0
-0.000135805 -0.000135545 0.0
0.000103805 -0.000247548 0.0
0.000240968 -0.000134181 0.0
0 0 0.0
0.0417752 -0.000283761 0.0
0.117918 -0.0018465 0.0
0.150524 -0.00281221 0.0
0.0812607 -0.000977045 0.0
0.245293 -0.00592035 0.0
0.249396 -0.00668854 0.0
0.248833 -0.00672402 0.0
0.22177 -0.00522759 0.0
0.236099 -0.00557268 0.0
0.20221 -0.00480401 0.0
0.149542 -0.00305131 0.0
0.178047 -0.00403996 0.0
0.243456 -0.00710152 0.0
0.232964 -0.00665922 0.0
0.217482 -0.0061222 0.0
0 0 0.0
0.000298814 -2.77974e-05 0.0
0 0 0.0
0 0 0.0
0 0 0.0
0 0 0.0
-0.000460457 0.000264889 0.0
-0.000151702 0.000849597 0.0
-0.000488908 0.00122427 0.0
-0.0010707 0.00175863 0.0
-0.000752037 0.000880886 0.0
0 0 0.0
-0.000116369 0.00226438 0.0
0.197081 -0.00553097 0.0
0.170955 -0.00439091 0.0
0 0 0.0
0.0555101 -0.000613917 0.0
0.101332 -0.00183091 0.0
0.139563 -0.00326382 0.0
0 0 0.0
0 0 0.0
-0.000117003 -0.000105031 0.0
8.57663e-05 -0.000131348 0.0