# vtk DataFile Version 3.0
Mesh NS-CD Problem
ASCII
DATASET UNSTRUCTURED_GRID
POINTS 10839 float
-2 0.3 0.0
-2 0.4 0.0
-2 0.35 0.0
-2 0.45 0.0
-2 0.5 0.0
-2 0.55 0.0
-2 0 0.0
-2 0.05 0.0
-2 0.85 0.0
-2 0.9 0.0
-2 0.1 0.0
-2 0.15 0.0
-2 0.25 0.0
-2 0.2 0.0
-1.96653 0.266667 0.0
-1.96524 0.415385 0.0
-1.96485 0.315 0.0
-1.96348 0.363636 0.0
-1.96414 0.464286 0.0
-2 0.6 0.0
-1.96538 0.584615 0.0
-1.96538 0.538462 0.0
-1.94979 0 0.0
-1.96653 0.0666666 0.0
-1.93306 0.0333333 0.0
-2 0.8 0.0
-2 0.75 0.0
-2 0.7 0.0
-2 0.65 0.0
-1.96249 0.7375 0.0
-1.96666 0.833333 0.0
-2 1 0.0
-2 0.95 0.0
-1.96249 0.8875 0.0
-1.96666 0.933333 0.0
-1.96234 0.1125 0.0
-1.96653 0.166667 0.0
-1.93724 0.225 0.0
-1.92971 0.28 0.0
-1.93048 0.380769 0.0
-1.93048 0.423077 0.0
-1.89958 0.3375 0.0
-1.9292 0.484203 0.0
-1.92117 0.530907 0.0
-1.96363 0.636364 0.0
-1.93076 0.576923 0.0
-1.89958 0 0.0
-1.88703 0.0375 0.0
-1.90963 0.08 0.0
-1.86611 0.0666666 0.0
-1.93749 0.775 0.0
-1.93635 0.672727 0.0
-1.92999 0.72 0.0
-1.93332 0.866667 0.0
-1.92856 0.821429 0.0
-1.94999 1 0.0
-1.92499 0.9625 0.0
-1.92499 0.925 0.0
-1.89998 0.9 0.0
-1.89958 0.125 0.0
-1.92827 0.178571 0.0
-1.89958 0.233333 0.0
-1.89045 0.290909 0.0
-1.86096 0.311538 0.0
-1.89241 0.392857 0.0
-1.89334 0.448489 0.0
-1.85655 0.357143 0.0
-1.89614 0.653846 0.0
-1.89427 0.504121 0.0
-1.8952 0.559753 0.0
-1.89614 0.615385 0.0
-1.84937 0 0.0
-1.83264 0.0333333 0.0
-1.85655 0.107143 0.0
-1.81172 0.075 0.0
-1.89998 0.766667 0.0
-1.89089 0.709091 0.0
-1.87498 0.85 0.0
-1.85998 0.79 0.0
-1.88748 0.8125 0.0
-1.89998 1 0.0
-1.88748 0.9625 0.0
-1.86664 0.933333 0.0
-1.85712 0.892857 0.0
-1.87448 0.15 0.0
-1.86611 0.194444 0.0
-1.83264 0.133333 0.0
-1.83264 0.2625 0.0
-1.82068 0.321429 0.0
-1.85664 0.404762 0.0
-1.85674 0.452381 0.0
-1.85683 0.5 0.0
-1.81184 0.375 0.0
-1.85712 0.642857 0.0
-1.85693 0.547619 0.0
-1.85702 0.595238 0.0
-1.79917 0 0.0
-1.78482 0.0357143 0.0
-1.79917 0.116667 0.0
-1.76569 0.0666666 0.0
-1.85452 0.745455 0.0
-1.82689 0.692308 0.0
-1.81815 0.781818 0.0
-1.82497 0.825 0.0
-1.84997 1 0.0
-1.8333 0.958333 0.0
-1.81247 0.8875 0.0
-1.81247 0.925 0.0
-1.81742 0.218182 0.0
-1.82427 0.175 0.0
-1.77634 0.145455 0.0
-1.79144 0.242308 0.0
-1.78482 0.285714 0.0
-1.77469 0.332653 0.0
-1.81215 0.529762 0.0
-1.81194 0.422619 0.0
-1.81203 0.470238 0.0
-1.76714 0.392857 0.0
-1.81234 0.625 0.0
-1.79732 0.571429 0.0
-1.74896 0 0.0
-1.73222 0.0333333 0.0
-1.75398 0.105 0.0
-1.71883 0.07 0.0
-1.79227 0.730769 0.0
-1.78007 0.679121 0.0
-1.75765 0.769231 0.0
-1.78178 0.818182 0.0
-1.78996 0.86 0.0
-1.79996 1 0.0
-1.78568 0.964286 0.0
-1.76663 0.922222 0.0
-1.76569 0.1875 0.0
-1.73222 0.15 0.0
-1.74896 0.25 0.0
-1.73714 0.304762 0.0
-1.76743 0.537202 0.0
-1.72869 0.343878 0.0
-1.76732 0.485119 0.0
-1.76723 0.440476 0.0
-1.72243 0.410714 0.0
-1.76757 0.607143 0.0
-1.69875 0 0.0
-1.68369 0.035 0.0
-1.69875 0.1125 0.0
-1.66528 0.075 0.0
-1.74341 0.708974 0.0
-1.73324 0.665934 0.0
-1.70441 0.74478 0.0
-1.71423 0.785714 0.0
-1.72303 0.826923 0.0
-1.74541 0.854545 0.0
-1.74541 0.890909 0.0
-1.74996 1 0.0
-1.73745 0.9625 0.0
-1.71359 0.927273 0.0
-1.68716 0.153846 0.0
-1.7131 0.214286 0.0
-1.70725 0.275 0.0
-1.69712 0.321939 0.0
-1.72279 0.589286 0.0
-1.72261 0.5 0.0
-1.7227 0.544643 0.0
-1.6827 0.355102 0.0
-1.67773 0.428571 0.0
-1.70763 0.464286 0.0
-1.70369 0.62449 0.0
-1.64854 0 0.0
-1.63181 0.0375 0.0
-1.64137 0.142857 0.0
-1.61764 0.0769231 0.0
-1.69458 0.703846 0.0
-1.67471 0.657437 0.0
-1.66143 0.727637 0.0
-1.67125 0.768571 0.0
-1.67851 0.821429 0.0
-1.68841 0.861538 0.0
-1.70904 0.890909 0.0
-1.69995 1 0.0
-1.68176 0.963636 0.0
-1.67267 0.927273 0.0
-1.65427 0.187143 0.0
-1.66718 0.231429 0.0
-1.66554 0.3 0.0
-1.67802 0.571429 0.0
-1.67792 0.523809 0.0
-1.6367 0.366327 0.0
-1.63682 0.423469 0.0
-1.62568 0.502976 0.0
-1.6629 0.470238 0.0
-1.65254 0.618367 0.0
-1.6059 0.307143 0.0
-1.59833 0 0.0
-1.58288 0.0384615 0.0
-1.60563 0.169643 0.0
-1.58179 0.112271 0.0
-1.56964 0.0714286 0.0
-1.64574 0.690385 0.0
-1.62827 0.751429 0.0
-1.63371 0.791071 0.0
-1.64279 0.857143 0.0
-1.65378 0.896154 0.0
-1.64994 1 0.0
-1.6363 0.963636 0.0
-1.61916 0.930769 0.0
-1.61345 0.209107 0.0
-1.62126 0.248571 0.0
-1.56989 0.196429 0.0
-1.63324 0.553571 0.0
-1.58846 0.535714 0.0
-1.59408 0.361905 0.0
-1.59161 0.402211 0.0
-1.58832 0.464286 0.0
-1.61504 0.598581 0.0
-1.59683 0.64359 0.0
-1.57899 0.274107 0.0
-1.56176 0.322381 0.0
-1.54812 0 0.0
-1.53378 0.0357143 0.0
-1.54593 0.147619 0.0
-1.53385 0.0732143 0.0
-1.53393 0.110714 0.0
-1.58522 0.704286 0.0
-1.58709 0.745 0.0
-1.58896 0.785714 0.0
-1.60695 0.830357 0.0
-1.60707 0.892857 0.0
-1.59993 1 0.0
-1.58454 0.965385 0.0
-1.57135 0.928571 0.0
-1.55209 0.241071 0.0
-1.5291 0.198214 0.0
-1.56936 0.570918 0.0
-1.54369 0.517857 0.0
-1.5464 0.380952 0.0
-1.54564 0.427721 0.0
-1.54488 0.47449 0.0
-1.55026 0.606122 0.0
-1.54222 0.677143 0.0
-1.52943 0.282857 0.0
-1.52143 0.33619 0.0
-1.49792 0 0.0
-1.49802 0.05 0.0
-1.49822 0.15 0.0
-1.49312 0.1 0.0
-1.5423 0.717143 0.0
-1.54419 0.767857 0.0
-1.54727 0.819048 0.0
-1.57122 0.861905 0.0
-1.53553 0.914286 0.0
-1.54992 1 0.0
-1.53563 0.964286 0.0
-1.49842 0.25 0.0
-1.48831 0.2 0.0
-1.5214 0.558929 0.0
-1.49891 0.5 0.0
-1.49871 0.4 0.0
-1.47631 0.45 0.0
-1.49911 0.6 0.0
-1.49921 0.65 0.0
-1.49931 0.7 0.0
-1.48111 0.35 0.0
-1.48351 0.3 0.0
-1.44771 0 0.0
-1.44782 0.05 0.0
-1.44804 0.15 0.0
-1.44793 0.1 0.0
-1.49941 0.75 0.0
-1.49951 0.8 0.0
-1.49981 0.95 0.0
-1.49961 0.85 0.0
-1.49971 0.9 0.0
-1.49991 1 0.0
-1.44826 0.25 0.0
-1.43815 0.2 0.0
-1.47151 0.55 0.0
-1.44881 0.5 0.0
-1.44859 0.4 0.0
-1.42619 0.45 0.0
-1.44913 0.65 0.0
-1.44902 0.6 0.0
-1.44935 0.75 0.0
-1.44924 0.7 0.0
-1.43972 0.35 0.0
-1.43336 0.3 0.0
-1.3975 0 0.0
-1.39762 0.05 0.0
-1.39786 0.15 0.0
-1.39274 0.1 0.0
-1.44957 0.85 0.0
-1.44946 0.8 0.0
-1.4523 0.95 0.0
-1.44968 0.9 0.0
-1.4499 1 0.0
-1.3981 0.25 0.0
-1.38798 0.2 0.0
-1.42141 0.55 0.0
-1.3987 0.5 0.0
-1.39834 0.35 0.0
-1.37845 0.4 0.0
-1.37607 0.45 0.0
-1.40784 0.65 0.0
-1.39894 0.6 0.0
-1.41185 0.75 0.0
-1.39918 0.7 0.0
-1.38322 0.3 0.0
-1.34729 0 0.0
-1.34492 0.05 0.0
-1.34018 0.15 0.0
-1.34255 0.1 0.0
-1.40707 0.85 0.0
-1.39941 0.8 0.0
-1.39977 0.95 0.0
-1.39965 0.9 0.0
-1.39989 1 0.0
-1.33781 0.2 0.0
-1.33544 0.25 0.0
-1.37131 0.55 0.0
-1.34859 0.5 0.0
-1.33833 0.4 0.0
-1.3307 0.35 0.0
-1.32595 0.45 0.0
-1.34885 0.6 0.0
-1.36655 0.65 0.0
-1.36179 0.75 0.0
-1.34911 0.7 0.0
-1.33307 0.3 0.0
-1.29708 0 0.0
-1.29722 0.05 0.0
-1.2975 0.15 0.0
-1.29236 0.1 0.0
-1.35703 0.85 0.0
-1.34937 0.8 0.0
-1.34988 1 0.0
-1.34962 0.9 0.0
-1.35226 0.95 0.0
-1.28528 0.25 0.0
-1.28764 0.2 0.0
-1.28931 0.35 0.0
-1.32121 0.55 0.0
-1.29848 0.5 0.0
-1.28709 0.45 0.0
-1.2982 0.4 0.0
-1.29876 0.6 0.0
-1.31647 0.65 0.0
-1.29918 0.75 0.0
-1.29904 0.7 0.0
-1.28292 0.3 0.0
-1.24687 0 0.0
-1.24702 0.05 0.0
-1.24717 0.1 0.0
-1.24732 0.15 0.0
-1.29946 0.85 0.0
-1.29932 0.8 0.0
-1.29987 1 0.0
-1.29974 0.95 0.0
-1.30462 0.9 0.0
-1.24762 0.25 0.0
-1.23747 0.2 0.0
-1.24792 0.35 0.0
-1.22807 0.4 0.0
-1.27111 0.55 0.0
-1.24837 0.5 0.0
-1.24822 0.45 0.0
-1.24867 0.6 0.0
-1.26639 0.65 0.0
-1.26167 0.75 0.0
-1.24897 0.7 0.0
-1.23277 0.3 0.0
-1.19667 0 0.0
-1.19683 0.05 0.0
-1.18964 0.15 0.0
-1.19198 0.1 0.0
-1.25695 0.85 0.0
-1.24927 0.8 0.0
-1.25223 0.95 0.0
-1.24987 1 0.0
-1.24957 0.9 0.0
-1.1873 0.2 0.0
-1.18496 0.25 0.0
-1.18028 0.35 0.0
-1.17794 0.4 0.0
-1.1981 0.45 0.0
-1.19842 0.55 0.0
-1.19826 0.5 0.0
-1.19858 0.6 0.0
-1.19874 0.65 0.0
-1.19906 0.75 0.0
-1.1989 0.7 0.0
-1.18262 0.3 0.0
-1.14646 0 0.0
-1.14663 0.05 0.0
-1.1418 0.1 0.0
-1.13713 0.2 0.0
-1.14697 0.15 0.0
-1.20691 0.85 0.0
-1.20926 0.8 0.0
-1.20221 0.95 0.0
-1.19986 1 0.0
-1.20456 0.9 0.0
-1.13997 0.3 0.0
-1.14731 0.25 0.0
-1.13781 0.4 0.0
-1.13014 0.35 0.0
-1.12548 0.45 0.0
-1.14815 0.5 0.0
-1.15962 0.55 0.0
-1.14849 0.6 0.0
-1.15745 0.65 0.0
-1.16155 0.75 0.0
-1.14917 0.8 0.0
-1.14883 0.7 0.0
-1.09625 0 0.0
-1.09661 0.1 0.0
-1.09393 0.05 0.0
-1.09697 0.2 0.0
-1.08929 0.15 0.0
-1.15687 0.85 0.0
-1.14985 1 0.0
-1.15219 0.95 0.0
-1.14951 0.9 0.0
-1.09733 0.3 0.0
-1.08465 0.25 0.0
-1.09769 0.4 0.0
-1.08 0.35 0.0
-1.08661 0.45 0.0
-1.09804 0.5 0.0
-1.12082 0.55 0.0
-1.10916 0.8 0.0
-1.10629 0.7 0.0
-1.0984 0.6 0.0
-1.11616 0.65 0.0
-1.11149 0.75 0.0
-1.04604 0 0.0
-1.04623 0.05 0.0
-1.04642 0.1 0.0
-1.0468 0.2 0.0
-1.03911 0.15 0.0
-1.09948 0.9 0.0
-1.0993 0.85 0.0
-1.09984 1 0.0
-1.09966 0.95 0.0
-1.04718 0.3 0.0
-1.03449 0.25 0.0
-1.04756 0.4 0.0
-1.02986 0.35 0.0
-1.04775 0.45 0.0
-1.04794 0.5 0.0
-1.04813 0.55 0.0
-1.05911 0.8 0.0
-1.04831 0.6 0.0
-1.06376 0.7 0.0
-1.0485 0.65 0.0
-1.04888 0.75 0.0
-0.995833 0 0.0
-0.991231 0.1 0.0
-0.996033 0.05 0.0
-0.986629 0.2 0.0
-0.98893 0.15 0.0
-1.05447 0.9 0.0
-1.04926 0.85 0.0
-1.04983 1 0.0
-1.04964 0.95 0.0
-0.984328 0.25 0.0
-0.99703 0.3 0.0
-0.997429 0.4 0.0
-0.997628 0.45 0.0
-0.979726 0.35 0.0
-0.997827 0.5 0.0
-0.998027 0.55 0.0
-0.998226 0.6 0.0
-0.961416 0.475 0.0
-1.00907 0.8 0.0
-0.998426 0.65 0.0
-0.998625 0.7 0.0
-1.01138 0.75 0.0
-0.945625 0 0.0
-0.946044 0.1 0.0
-0.943334 0.05 0.0
-0.946463 0.2 0.0
-0.938752 0.15 0.0
-1.00444 0.9 0.0
-1.00675 0.85 0.0
-0.999821 1 0.0
-1.00213 0.95 0.0
-0.93417 0.25 0.0
-0.946881 0.3 0.0
-0.9473 0.4 0.0
-0.929588 0.35 0.0
-0.925005 0.45 0.0
-0.960371 0.525 0.0
-0.959325 0.575 0.0
-0.958279 0.625 0.0
-0.922714 0.5 0.0
-0.959017 0.8 0.0
-0.957233 0.675 0.0
-0.952999 0.7125 0.0
-0.948766 0.75 0.0
-0.895417 0 0.0
-0.895855 0.1 0.0
-0.893136 0.05 0.0
-0.896294 0.2 0.0
-0.888573 0.15 0.0
-0.949184 0.85 0.0
-0.954415 0.9 0.0
-0.949812 1 0.0
-0.949603 0.95 0.0
-0.884011 0.25 0.0
-0.896733 0.3 0.0
-0.874887 0.45 0.0
-0.879449 0.35 0.0
-0.897171 0.4 0.0
-0.920423 0.55 0.0
-0.918132 0.6 0.0
-0.915841 0.65 0.0
-0.872606 0.5 0.0
-0.908968 0.8 0.0
-0.91355 0.7 0.0
-0.898707 0.75 0.0
-0.845208 0 0.0
-0.845438 0.05 0.0
-0.845667 0.1 0.0
-0.845896 0.15 0.0
-0.833853 0.25 0.0
-0.846126 0.2 0.0
-0.899146 0.85 0.0
-0.904386 0.9 0.0
-0.899584 0.95 0.0
-0.899804 1 0.0
-0.838062 0.35 0.0
[...]
POINT_DATA 10839
VECTORS Velocity float
0.21 0 0.0
0.24 0 0.0
0.2275 0 0.0
0.2475 0 0.0
0.25 0 0.0
0.2475 0 0.0
0 0 0.0
0.0475 0 0.0
0.1275 0 0.0
0.09 0 0.0
0.09 0 0.0
0.1275 0 0.0
0.1875 0 0.0
0.16 0 0.0
0.195557 -2.30411e-05 0.0
0.242841 -3.14823e-05 0.0
0.215776 -2.7446e-05 0.0
0.231406 -3.09562e-05 0.0
0.248725 -3.35262e-05 0.0
0.24 0 0.0
0.24284 -3.14101e-05 0.0
0.24852 -3.22854e-05 0.0
0 0 0.0
0.0622238 -3.98961e-06 0.0
0.0322267 -2.63539e-06 0.0
0.16 0 0.0
0.1875 0 0.0
0.21 0 0.0
0.2275 0 0.0
0.193592 -2.58614e-05 0.0
0.138887 -1.4325e-05 0.0
0 0 0.0
0.0475 0 0.0
0.0998416 -9.93165e-06 0.0
0.0622206 -4.034e-06 0.0
0.0998461 -1.03799e-05 0.0
0.138891 -1.44554e-05 0.0
0.17438 -3.63091e-05 0.0
0.201605 -4.97976e-05 0.0
0.235787 -6.08722e-05 0.0
0.244085 -6.37119e-05 0.0
0.223602 -8.16301e-05 0.0
0.249751 -6.65773e-05 0.0
0.249044 -7.42006e-05 0.0
0.231404 -3.14594e-05 0.0
0.244081 -6.29521e-05 0.0
0 0 0.0
0.0361074 -5.1074e-06 0.0
0.0736121 -1.43018e-05 0.0
0.0622479 -1.56798e-05 0.0
0.17437 -3.57674e-05 0.0
0.220162 -4.97954e-05 0.0
0.201595 -4.98666e-05 0.0
0.115549 -2.13919e-05 0.0
0.146676 -3.32035e-05 0.0
0 0 0.0
0.0360877 -3.43624e-06 0.0
0.0693665 -1.11704e-05 0.0
0.0899842 -2.22148e-05 0.0
0.109391 -3.00906e-05 0.0
0.146691 -3.25675e-05 0.0
0.178901 -6.09631e-05 0.0
0.206293 -7.98176e-05 0.0
0.2145 -0.00010769 0.0
0.238527 -9.55223e-05 0.0
0.24735 -9.94953e-05 0.0
0.229606 -0.000121677 0.0
0.226324 -8.57781e-05 0.0
0.249983 -9.9992e-05 0.0
0.246426 -9.72654e-05 0.0
0.23668 -9.15441e-05 0.0
0 0 0.0
0.0322492 -5.77938e-06 0.0
0.0956952 -3.41954e-05 0.0
0.069427 -2.57646e-05 0.0
0.178876 -6.00239e-05 0.0
0.206269 -8.0413e-05 0.0
0.127477 -4.62074e-05 0.0
0.165874 -7.60154e-05 0.0
0.152326 -5.43527e-05 0.0
0 0 0.0
0.0360803 -4.94613e-06 0.0
0.062197 -1.55107e-05 0.0
0.0956313 -3.48328e-05 0.0
0.127524 -4.6662e-05 0.0
0.15666 -6.79022e-05 0.0
0.115599 -5.36159e-05 0.0
0.193625 -0.000112292 0.0
0.21814 -0.000142278 0.0
0.240939 -0.000129695 0.0
0.247737 -0.000134536 0.0
0.25 -0.000136012 0.0
0.234397 -0.000164849 0.0
0.229577 -0.000119982 0.0
0.247728 -0.000134235 0.0
0.24092 -0.00012946 0.0
0 0 0.0
0.0344849 -8.01598e-06 0.0
0.103118 -5.27087e-05 0.0
0.0622995 -2.61141e-05 0.0
0.189728 -9.53255e-05 0.0
0.21299 -0.000133407 0.0
0.170535 -0.000103277 0.0
0.144331 -7.65516e-05 0.0
0 0 0.0
0.0398996 -8.53174e-06 0.0
0.0997886 -4.78638e-05 0.0
0.0693235 -2.53337e-05 0.0
0.170623 -0.000103418 0.0
0.144419 -7.82169e-05 0.0
0.124374 -7.93754e-05 0.0
0.183648 -0.000130933 0.0
0.20413 -0.000156926 0.0
0.222037 -0.000184949 0.0
0.249109 -0.000178822 0.0
0.244026 -0.000174032 0.0
0.249119 -0.000178832 0.0
0.23855 -0.000210235 0.0
0.234353 -0.000163867 0.0
0.244883 -0.000188575 0.0
0 0 0.0
0.0322886 -8.49723e-06 0.0
0.0940702 -5.54561e-05 0.0
0.0652123 -3.30962e-05 0.0
0.196698 -0.000143228 0.0
0.217873 -0.000176196 0.0
0.17744 -0.00014545 0.0
0.148692 -0.000101259 0.0
0.120332 -7.07563e-05 0.0
0 0 0.0
0.0343931 -8.09092e-06 0.0
0.0716478 -3.31765e-05 0.0
0.152421 -0.000113687 0.0
0.12761 -9.87558e-05 0.0
0.187575 -0.000162679 0.0
0.211949 -0.000202901 0.0
0.248606 -0.000222328 0.0
0.225683 -0.000230057 0.0
0.249782 -0.000223952 0.0
0.246473 -0.000220158 0.0
0.242063 -0.000258027 0.0
0.238491 -0.000209629 0.0
0 0 0.0
0.0338696 -1.06661e-05 0.0
0.0999872 -7.42653e-05 0.0
0.069538 -4.41543e-05 0.0
0.206263 -0.000189862 0.0
0.222407 -0.000221537 0.0
0.189979 -0.000197469 0.0
0.168258 -0.000159267 0.0
0.143008 -0.000121975 0.0
0.124198 -8.98254e-05 0.0
0.0970883 -6.02214e-05 0.0
0 0 0.0
0.0360243 -1.0321e-05 0.0
0.0673201 -3.55928e-05 0.0
0.130329 -0.000119584 0.0
0.168478 -0.00016008 0.0
0.199469 -0.000209133 0.0
0.218376 -0.000245692 0.0
0.241993 -0.000258648 0.0
0.25 -0.00027006 0.0
0.247989 -0.000266892 0.0
0.229079 -0.000277471 0.0
0.244936 -0.000307794 0.0
0.24874 -0.000283534 0.0
0.234447 -0.00026513 0.0
0 0 0.0
0.0362262 -1.37726e-05 0.0
0.122651 -0.000122678 0.0
0.0712202 -5.23163e-05 0.0
0.208353 -0.000232672 0.0
0.225129 -0.000277283 0.0
0.198052 -0.000241791 0.0
0.17773 -0.000199985 0.0
0.146531 -0.000147202 0.0
0.119138 -0.000102615 0.0
0.0970566 -6.84023e-05 0.0
0 0 0.0
0.0349435 -1.15659e-05 0.0
0.0672844 -4.01217e-05 0.0
0.152295 -0.000167594 0.0
0.178012 -0.000204768 0.0
0.210112 -0.000259368 0.0
0.244859 -0.000307709 0.0
0.24942 -0.00031615 0.0
0.232223 -0.000326994 0.0
0.244195 -0.000350682 0.0
0.249989 -0.00037451 0.0
0.249132 -0.000332351 0.0
0.235915 -0.00031814 0.0
0.212958 -0.000317442 0.0
0 0 0.0
0.0371533 -1.62471e-05 0.0
0.141102 -0.000171161 0.0
0.0999472 -0.000103235 0.0
0.0665888 -5.10156e-05 0.0
0.213633 -0.000283668 0.0
0.186613 -0.00024687 0.0
0.165091 -0.000200686 0.0
0.122248 -0.00012329 0.0
0.0928734 -7.51284e-05 0.0
0 0 0.0
0.0349152 -1.29255e-05 0.0
0.0642353 -4.26422e-05 0.0
0.16559 -0.000214715 0.0
0.186962 -0.000252498 0.0
0.158115 -0.000224904 0.0
0.247092 -0.000360204 0.0
0.248692 -0.000414651 0.0
0.231048 -0.000367702 0.0
0.240523 -0.000392531 0.0
0.248756 -0.000414308 0.0
0.240205 -0.000366531 0.0
0.22926 -0.000360262 0.0
0.199175 -0.000310911 0.0
0.218629 -0.000372022 0.0
0 0 0.0
0.0346396 -1.59474e-05 0.0
0.126159 -0.000166497 0.0
0.0681656 -5.7713e-05 0.0
0.098807 -0.000112548 0.0
0.208088 -0.000325104 0.0
0.189766 -0.000283244 0.0
0.168133 -0.000234887 0.0
0.140627 -0.00016982 0.0
0.0954181 -8.95106e-05 0.0
0 0 0.0
0.0332607 -1.32371e-05 0.0
0.0660667 -5.08276e-05 0.0
0.183215 -0.000293884 0.0
0.159252 -0.000252022 0.0
0.2449 -0.000427729 0.0
0.24966 -0.000469936 0.0
0.235957 -0.000430945 0.0
0.244856 -0.000455583 0.0
0.249377 -0.000468739 0.0
0.238624 -0.000433282 0.0
0.218426 -0.000391524 0.0
0.203097 -0.000363332 0.0
0.223365 -0.00042587 0.0
0 0 0.0
0.0477931 -3.19085e-05 0.0
0.127908 -0.00019009 0.0
0.0904092 -0.000105668 0.0
0.202615 -0.000349858 0.0
0.177975 -0.000287496 0.0
0.147897 -0.000215416 0.0
0.11873 -0.000140898 0.0
0.0780397 -7.50975e-05 0.0
0 0 0.0
0.0342407 -1.56051e-05 0.0
0.187822 -0.00034852 0.0
0.160389 -0.000280735 0.0
0.246454 -0.000489427 0.0
0.25 -0.000527673 0.0
0.240136 -0.000498188 0.0
0.247575 -0.000549595 0.0
0.239863 -0.000497773 0.0
0.227298 -0.000460789 0.0
0.209736 -0.000409762 0.0
0.227718 -0.000483823 0.0
0.210282 -0.000427171 0.0
0 0 0.0
0.0478542 -3.55962e-05 0.0
0.128 -0.00021245 0.0
0.0904889 -0.000116254 0.0
0.187179 -0.000346638 0.0
0.159629 -0.000271403 0.0
0.0472108 -3.12605e-05 0.0
0.127096 -0.0001874 0.0
0.0896034 -0.000103361 0.0
0 0 0.0
0.187896 -0.000392131 0.0
0.160477 -0.000314549 0.0
0.247422 -0.000555921 0.0
0.249999 -0.000595184 0.0
0.240168 -0.00056226 0.0
0.247592 -0.000618485 0.0
0.227252 -0.000519425 0.0
0.239831 -0.000561159 0.0
0.187105 -0.000389879 0.0
0.209675 -0.000461581 0.0
0.227757 -0.00053163 0.0
0.210345 -0.000480676 0.0
0 0 0.0
0.0479214 -3.90582e-05 0.0
0.128104 -0.000236417 0.0
0.0905972 -0.000130455 0.0
0.127003 -0.000210186 0.0
0.159544 -0.000304845 0.0
0.0471538 -3.46671e-05 0.0
0.0895162 -0.000114943 0.0
0 0 0.0
0.187981 -0.000438352 0.0
0.160576 -0.000350964 0.0
0.247405 -0.000624619 0.0
0.249999 -0.000667443 0.0
0.227801 -0.000583653 0.0
0.240218 -0.000658455 0.0
0.24761 -0.000692798 0.0
0.227208 -0.00056919 0.0
0.239796 -0.000629237 0.0
0.187043 -0.00042315 0.0
0.209606 -0.000516887 0.0
0.210417 -0.000537814 0.0
0 0 0.0
0.0480003 -4.34429e-05 0.0
0.128238 -0.000266143 0.0
0.0907075 -0.000144163 0.0
0.126917 -0.000229734 0.0
0.159448 -0.000339731 0.0
0.0470846 -3.84984e-05 0.0
0.0894198 -0.000126928 0.0
0 0 0.0
0.160687 -0.000389608 0.0
0.1881 -0.000500285 0.0
0.247385 -0.000698277 0.0
0.249998 -0.000745024 0.0
0.240251 -0.00071945 0.0
0.227883 -0.00067577 0.0
0.247631 -0.000771635 0.0
0.239755 -0.000701796 0.0
0.227161 -0.000623449 0.0
0.186951 -0.000471076 0.0
0.209528 -0.000575702 0.0
0.210497 -0.000599575 0.0
0 0 0.0
0.0480797 -4.7919e-05 0.0
0.128349 -0.00029031 0.0
0.0908294 -0.000159111 0.0
0.126804 -0.000254351 0.0
0.15934 -0.000377406 0.0
0 0 0.0
0.089312 -0.000140384 0.0
0.0470149 -4.22918e-05 0.0
0.188209 -0.00055676 0.0
0.160811 -0.000432108 0.0
0.227939 -0.000737187 0.0
0.247364 -0.000778127 0.0
0.249998 -0.000829048 0.0
0.247649 -0.000838097 0.0
0.240287 -0.000783217 0.0
0.23971 -0.000780407 0.0
0.227096 -0.000693737 0.0
0.186821 -0.000535709 0.0
0.209441 -0.000639968 0.0
0.210587 -0.000665568 0.0
0 0 0.0
0.0481701 -5.28307e-05 0.0
0.0909502 -0.000173427 0.0
0.128492 -0.000320386 0.0
0.126659 -0.000284966 0.0
0.159219 -0.00041783 0.0
0 0 0.0
0.0469312 -4.64907e-05 0.0
0.0892063 -0.000152775 0.0
0.1883 -0.000600718 0.0
0.16095 -0.000478239 0.0
0.228 -0.00080312 0.0
0.240358 -0.000905353 0.0
0.247339 -0.000864678 0.0
0.249997 -0.000919555 0.0
0.247669 -0.000908019 0.0
0.239659 -0.000865444 0.0
0.227024 -0.000769954 0.0
0.186734 -0.000578345 0.0
0.209343 -0.000708438 0.0
0.210688 -0.000737816 0.0
0 0 0.0
0.0482708 -5.80032e-05 0.0
0.128677 -0.000359608 0.0
0.0911137 -0.000193763 0.0
0.126539 -0.000309688 0.0
0.159085 -0.000461537 0.0
0.0468477 -5.04583e-05 0.0
0 0 0.0
0.0890639 -0.000169432 0.0
0.161103 -0.000528457 0.0
0.188465 -0.000680298 0.0
0.228114 -0.000920683 0.0
0.240416 -0.00100374 0.0
0.247695 -0.00100634 0.0
0.247298 -0.00100094 0.0
0.249996 -0.00101957 0.0
0.239602 -0.00095978 0.0
0.226914 -0.000881293 0.0
0.186573 -0.00065424 0.0
0.209235 -0.000784057 0.0
0.210799 -0.000815885 0.0
0 0 0.0
0.0483805 -6.3682e-05 0.0
0.0912775 -0.000212619 0.0
0.161272 -0.000581733 0.0
0.128828 -0.000390078 0.0
0.126385 -0.000340785 0.0
0.158967 -0.000499044 0.0
0.0467507 -5.56333e-05 0.0
0 0 0.0
0.0889337 -0.000184575 0.0
0.210903 -0.000888237 0.0
0.188577 -0.000734251 0.0
0.240467 -0.00108672 0.0
0.228208 -0.00102003 0.0
0.247741 -0.00116176 0.0
0.249995 -0.00112703 0.0
0.247273 -0.00108201 0.0
0.239539 -0.00106054 0.0
0.226838 -0.000956625 0.0
0.186464 -0.00070422 0.0
0.158772 -0.000560804 0.0
0.209115 -0.000864953 0.0
0 0 0.0
0.0914417 -0.00023258 0.0
0.0485097 -7.08725e-05 0.0
0.161421 -0.000630535 0.0
0.129052 -0.000437728 0.0
0.126215 -0.000375025 0.0
0 0 0.0
0.0466446 -6.09911e-05 0.0
0.0887604 -0.000204464 0.0
0.211018 -0.000964885 0.0
0.18878 -0.000832043 0.0
0.240522 -0.00117592 0.0
0.228314 -0.00112725 0.0
0.247767 -0.00125706 0.0
0.249993 -0.00124542 0.0
0.247246 -0.00117093 0.0
0.158627 -0.000603364 0.0
0.209002 -0.000939471 0.0
0.239468 -0.00116959 0.0
0.226755 -0.0010385 0.0
0.186308 -0.000776471 0.0
0 0 0.0
0.048637 -7.73825e-05 0.0
0.091638 -0.000255852 0.0
0.161625 -0.000694517 0.0
0.12927 -0.000482835 0.0
0.0885853 -0.000223607 0.0
0.125998 -0.00041775 0.0
0 0 0.0
0.0465228 -6.72142e-05 0.0
0.211164 -0.0010646 0.0
0.188965 -0.000918613 0.0
0.240597 -0.00129784 0.0
0.228429 -0.00124482 0.0
0.247796 -0.00135882 0.0
0.249993 -0.00137581 0.0
0.247189 -0.00134811 0.0
0.158431 -0.000663047 0.0
0.239391 -0.00129103 0.0
0.208879 -0.00101772 0.0
0.226605 -0.00118597 0.0
0.186087 -0.000878051 0.0
0 0 0.0
0.0918791 -0.000284944 0.0
0.0487845 -8.52772e-05 0.0
0.161895 -0.000780015 0.0
0.12951 -0.000532455 0.0
0.0884138 -0.000242975 0.0
0.125787 -0.000459579 0.0
0 0 0.0
0.0463943 -7.37493e-05 0.0
0.189166 -0.00101453 0.0
0.211326 -0.001175 0.0
0.24068 -0.00143354 0.0
0.247838 -0.00149686 0.0
0.228557 -0.00137316 0.0
0.24999 -0.00151538 0.0
0.247145 -0.00148977 0.0
0.239305 -0.00142144 0.0
0.249553 -0.00162376 0.0
0.158212 -0.000728253 0.0
0.226477 -0.00130781 0.0
0.208669 -0.00115333 0.0
0.185941 -0.000943209 0.0
0 0 0.0
0.0920996 -0.000311734 0.0
0.0489575 -9.51527e-05 0.0
0.162097 -0.000844444 0.0
0.129775 -0.000587199 0.0
0.088206 -0.000266083 0.0
0.125592 -0.000497627 0.0
0 0 0.0
0.0462618 -8.04537e-05 0.0
0.18939 -0.00111901 0.0
0.211506 -0.00129651 0.0
0.240768 -0.00157943 0.0
0.228699 -0.00151628 0.0
0.247902 -0.0017262 0.0
0.249171 -0.00162367 0.0
0.243791 -0.00157575 0.0
0.23342 -0.00147973 0.0
0.249985 -0.00175601 0.0
0.157973 -0.000799583 0.0
0.218063 -0.00133922 0.0
0.203265 -0.00121019 0.0
0.185673 -0.00106058 0.0
0 0 0.0
0.092364 -0.000344054 0.0
0.0491373 -0.000104534 0.0
0.16237 -0.000931964 0.0
0.130067 -0.000648484 0.0
0.125302 -0.000553485 0.0
0.0879772 -0.000291682 0.0
0 0 0.0
0.0461022 -8.77974e-05 0.0
0.189637 -0.00123498 0.0
0.211704 -0.00143044 0.0
0.24795 -0.00190105 0.0
0.228854 -0.00167229 0.0
0.240871 -0.00174281 0.0
0.247065 -0.00173398 0.0
0.239146 -0.00165956 0.0
0.226238 -0.00153383 0.0
0.249978 -0.00193486 0.0
0.157707 -0.000878906 0.0
0.20835 -0.00135748 0.0
0.18543 -0.00116662 0.0
0 0 0.0
0.0493271 -0.000114834 0.0
0.0926566 -0.000380783 0.0
0.13034 -0.000705248 0.0
0.189908 -0.00136095 0.0
0.162673 -0.00102866 0.0
0.125021 -0.000606918 0.0
0.0877259 -0.000319731 0.0
0.0459335 -9.61228e-05 0.0
0 0 0.0
0.228995 -0.00181399 0.0
0.211923 -0.00157996 0.0
0.247994 -0.00205202 0.0
0.24098 -0.00192449 0.0
0.226071 -0.00168723 0.0
0.247003 -0.00190942 0.0
0.23903 -0.001827 0.0
0.249975 -0.00213163 0.0
0.185167 -0.00128084 0.0
0.157356 -0.000981037 0.0
0.208064 -0.00153561 0.0
0 0 0.0
0.0495475 -0.000127714 0.0
0.0930153 -0.00042547 0.0
0.13069 -0.000778091 0.0
0.19013 -0.00146877 0.0
0.163075 -0.00116293 0.0
0.124715 -0.000664363 0.0
0.0874235 -0.000353127 0.0
0.0457508 -0.000104687 0.0
0 0 0.0
0.124376 -0.000729278 0.0
0.229145 -0.00196216 0.0
0.212239 -0.00180029 0.0
0.241151 -0.00221006 0.0
0.248039 -0.00221141 0.0
0.22582 -0.00191789 0.0
0.238905 -0.00200931 0.0
0.246937 -0.00210422 0.0
0.249964 -0.00234825 0.0
0.184875 -0.00140661 0.0
0.157027 -0.00107979 0.0
0.207819 -0.00169147 0.0
0 0 0.0
0.0497912 -0.000141309 0.0
0.0933783 -0.000471534 0.0
0.131078 -0.000861164 0.0
0.190455 -0.00161978 0.0
0.163453 -0.00128716 0.0
0.0455472 -0.000115491 0.0
0.0871162 -0.000387686 0.0
0 0 0.0
0.124064 -0.000786899 0.0
0.229346 -0.00216893 0.0
0.212514 -0.00198972 0.0
0.241288 -0.0024375 0.0
0.248099 -0.00244072 0.0
0.225644 -0.00207645 0.0
0.238767 -0.00220994 0.0
0.249956 -0.00258832 0.0
0.246826 -0.00242008 0.0
0.184634 -0.00150645 0.0
0.156667 -0.00118531 0.0
0.207549 -0.00185764 0.0
0 0 0.0
0.0500591 -0.0001562 0.0
0.0937772 -0.0005215 0.0
0.131571 -0.000966309 0.0
0.190901 -0.00183399 0.0
0.212813 -0.00220106 0.0
0.163866 -0.00142643 0.0
0.0453399 -0.000125583 0.0
0.086783 -0.000424118 0.0
0 0 0.0
0.123663 -0.000862405 0.0
0.229645 -0.00247488 0.0
0.241406 -0.00264126 0.0
0.248166 -0.00269274 0.0
0.249944 -0.00278662 0.0
0.225459 -0.00224345 0.0
0.238607 -0.00243468 0.0
0.246738 -0.00266464 0.0
0.15627 -0.00130193 0.0
0.184289 -0.0016541 0.0
0.207249 -0.00204016 0.0
0 0 0.0
0.0503765 -0.000175211 0.0
0.0942233 -0.000580591 0.0
0.132053 -0.0010743 0.0
0.191203 -0.00198189 0.0
0.213141 -0.00243107 0.0
0.164324 -0.00158121 0.0
0.0450999 -0.000136891 0.0
0.0864167 -0.000464092 0.0
0 0 0.0
0.155926 -0.00139641 0.0
0.086017 -0.000505748 0.0
0.123154 -0.000956659 0.0
0.229895 -0.00274669 0.0
0.24153 -0.00285169 0.0
0.248269 -0.00310391 0.0
0.249936 -0.0029945 0.0
0.246663 -0.00287293 0.0
0.225211 -0.00246372 0.0
0.238364 -0.00278333 0.0
0.183805 -0.00185522 0.0
0.206971 -0.00221428 0.0
0.23012 -0.00297801 0.0
0 0 0.0
0.0507119 -0.000195346 0.0
0.132587 -0.00119581 0.0
0.0947175 -0.000648271 0.0
0.213505 -0.00269545 0.0
0.191745 -0.00225152 0.0
0.164829 -0.00175471 0.0
0.0448264 -0.000149603 0.0
0 0 0.0
0.183484 -0.00199217 0.0
0.155456 -0.0015316 0.0
0.122661 -0.00104957 0.0
0.0445357 -0.000164384 0.0
0.0855759 -0.000554321 0.0
0.241704 -0.00315151 0.0
0.248329 -0.00335264 0.0
0.249914 -0.00330051 0.0
0.249898 -0.0035541 0.0
0.246577 -0.003094 0.0
0.22493 -0.00270927 0.0
0.238155 -0.00306304 0.0
0.206666 -0.00239138 0.0
0.230352 -0.00323369 0.0
0.0510698 -0.000218683 0.0
0 0 0.0
0.133086 -0.00130849 0.0
0.095264 -0.000722805 0.0
0.2139 -0.00298698 0.0
0.19211 -0.00243703 0.0
0.165388 -0.00195203 0.0
0 0 0.0
0.183022 -0.00217897 0.0
0.154831 -0.00170561 0.0
0.122209 -0.00112776 0.0
0.0442396 -0.000178505 0.0
0.0850962 -0.000605345 0.0
0.241961 -0.00362705 0.0
0.248392 -0.00361322 0.0
0.249873 -0.0038204 0.0
0.246401 -0.00354721 0.0
0.224626 -0.00297309 0.0
0.237934 -0.00336792 0.0
0.206152 -0.00269958 0.0
0.230671 -0.00358339 0.0
0 0 0.0
0.0514864 -0.000246649 0.0
0.133729 -0.00146103 0.0
0.0958159 -0.000801939 0.0
0.166004 -0.00217066 0.0
0.214335 -0.0033176 0.0
0.192771 -0.00277591 0.0
0 0 0.0
0 0 0.0
0.182509 -0.00238823 0.0
0.154252 -0.00186968 0.0
0.121628 -0.00123413 0.0
0.0845719 -0.000660516 0.0
0.0438988 -0.000193816 0.0
0.242166 -0.00401051 0.0
0.24847 -0.00398988 0.0
0.237734 -0.00363123 0.0
0.249838 -0.00420709 0.0
0.246252 -0.00390838 0.0
0.224285 -0.00326674 0.0
0.205703 -0.00295796 0.0
0.242335 -0.00435147 0.0
0.231002 -0.00397213 0.0
0.0519497 -0.000275613 0.0
0.0964856 -0.000894646 0.0
0.134448 -0.00163902 0.0
0.166546 -0.00237511 0.0
0.214812 -0.00368385 0.0
0.19321 -0.00301976 0.0
0 0 0.0
0 0 0.0
0.153752 -0.00200089 0.0
0.1818 -0.00266657 0.0
0.084057 -0.000711301 0.0
0.120893 -0.00136375 0.0
0.0435259 -0.000212081 0.0
0.248594 -0.00459006 0.0
0.249785 -0.00463787 0.0
0.205213 -0.003239 0.0
0.237513 -0.00390785 0.0
0.246128 -0.00421212 0.0
0.223765 -0.00369774 0.0
0.242518 -0.00470676 0.0
0.23151 -0.00456861 0.0
0.215326 -0.00409964 0.0
0.0525043 -0.000312993 0.0
0.097241 -0.00101128 0.0
0.135371 -0.00187612 0.0
0.167288 -0.00265136 0.0
0.194006 -0.00346548 0.0
0 0 0.0
0 0 0.0
0.152927 -0.0022198 0.0
0.181166 -0.00291909 0.0
0.083373 -0.000781771 0.0
0.120189 -0.00148371 0.0
0.0431038 -0.000229671 0.0
0.245987 -0.00453581 0.0
0.249723 -0.00510059 0.0
0.248668 -0.00507292 0.0
0.204673 -0.00354121 0.0
0.237216 -0.00429103 0.0
0.22333 -0.00406194 0.0
0.180471 -0.00318693 0.0
0.242841 -0.0054154 0.0
0 0 0.0
0.231897 -0.00508587 0.0
0.194716 -0.00388536 0.0
0.215879 -0.00456348 0.0
0.0530825 -0.000357455 0.0
0.13614 -0.00208857 0.0
0.0981874 -0.00117285 0.0
0.168273 -0.00306358 0.0
0 0 0.0
0 0 0.0
0 0 0.0
0 0 0.0
0 0 0.0
0.0426874 -0.000246424 0.0
0.119416 -0.00161657 0.0
0.152165 -0.00242196 0.0
0.082763 -0.000842876 0.0
0.24578 -0.00497485 0.0
0.249638 -0.00561142 0.0
0.248745 -0.00560159 0.0
0.222933 -0.00436646 0.0
0.204072 -0.00386852 0.0
0.236725 -0.00487469 0.0
0.203518 -0.00416387 0.0
0.179905 -0.00339471 0.0
0.243074 -0.00600066 0.0
0.232315 -0.00564638 0.0
0 0 0.0
7.64116e-05 -3.79608e-05 0.0
0 0 0.0
-0.000123524 0.000246939 0.0
0.21648 -0.0050969 0.0
0.195296 -0.00423558 0.0
0.0538044 -0.000417272 0.0
0.137136 -0.00237237 0.0
0.0991683 -0.00135268 0.0
0.169204 -0.00347322 0.0
0 0 0.0
0 0 0.0
0 0 0.0
-7.33256e-05 -3.83935e-05 0.0
3.54526e-05 -0.000183043 0.0
0.000135823 -0.000149004 0.0
0 0 0.0
0.0422098 -0.000267908 0.0
0.118711 -0.00173134 0.0
0.151333 -0.00263301 0.0
0.0819546 -0.00091941 0.0
0.245549 -0.00546387 0.0
0.249528 -0.00616561 0.0
0.248807 -0.00617482 0.0
0.222504 -0.00469687 0.0
0.236414 -0.00525055 0.0
0.202913 -0.00446855 0.0
0.178875 -0.00376399 0.0
0.243315 -0.00663671 0.0
0.235836 -0.00633824 0.0
0.22549 -0.00591958 0.0
0 0 0.0
0.000196293 -4.84439e-05 0.0
0 0 0.0
0 0 0.0
-0.000484302 0.000985607 0.0
-0.000376179 0.000385825 0.0
0.212259 -0.00541694 0.0
0.196109 -0.0047718 0.0
0.100172 -0.00155125 0.0
0.0545725 -0.000496489 0.0
0.138249 -0.00272669 0.0
0.17021 -0.00395485 0.0
0 0 0.0
-2.63633e-05 -0.000240592 0.0
-0.000182536 -4.22537e-05 0.0
8.75951e-05 -0.000233915 0.0
0.000225784 -0.000119546 0.0
0 0 0.0
0.0416954 -0.000289432 0.0
0.117812 -0.00187419 0.0
0.15043 -0.00284926 0.0
0.0811501 -0.000994136 0.0
0.245274 -0.00598593 0.0
0.249394 -0.0067641 0.0
0.248852 -0.00680006 0.0
0.221717 -0.00528562 0.0
0.236063 -0.00563436 0.0
0.202137 -0.0048576 0.0
0.149439 -0.00309005 0.0
0.177959 -0.00408672 0.0
0.2435 -0.00718294 0.0
0.233031 -0.00673271 0.0
0.217572 -0.00618579 0.0
0 0 0.0
0.000288478 -1.92475e-05 0.0
0 0 0.0
0 0 0.0
0 0 0.0
0 0 0.0
-0.000585565 0.000459356 0.0
-0.00016994 0.00107073 0.0
-0.000558227 0.0015663 0.0
-0.00123486 0.00221638 0.0
-0.000893132 0.00119749 0.0
0 0 0.0
-0.000113006 0.00255756 0.0
0.197194 -0.00558277 0.0
0.171077 -0.00442565 0.0
0 0 0.0
0.0555711 -0.000613976 0.0
0.101437 -0.00183787 0.0
0.139689 -0.00328308 0.0
0 0 0.0
0 0 0.0
-0.00019388 -9.2956e-06 0.0
2.50283e-05 -7.53466e-05 0.0