# vtk DataFile Version 3.0
Mesh NS-CD Problem
ASCII
DATASET UNSTRUCTURED_GRID
POINTS 10839 float
-2 0.3 0.0
-2 0.4 0.0
-2 0.35 0.0
-2 0.45 0.0
-2 0.5 0.0
-2 0.55 0.0
-2 0 0.0
-2 0.05 0.0
-2 0.85 0.0
-2 0.9 0.0
-2 0.1 0.0
-2 0.15 0.0
-2 0.25 0.0
-2 0.2 0.0
-1.96653 0.266667 0.0
-1.96524 0.415385 0.0
-1.96485 0.315 0.0
-1.96348 0.363636 0.0
-1.96414 0.464286 0.0
-2 0.6 0.0
-1.96538 0.584615 0.0
-1.96538 0.538462 0.0
-1.94979 0 0.0
-1.96653 0.0666666 0.0
-1.93306 0.0333333 0.0
-2 0.8 0.0
-2 0.75 0.0
-2 0.7 0.0
-2 0.65 0.0
-1.96249 0.7375 0.0
-1.96666 0.833333 0.0
-2 1 0.0
-2 0.95 0.0
-1.96249 0.8875 0.0
-1.96666 0.933333 0.0
-1.96234 0.1125 0.0
-1.96653 0.166667 0.0
-1.93724 0.225 0.0
-1.92971 0.28 0.0
-1.93048 0.380769 0.0
-1.93048 0.423077 0.0
-1.89958 0.3375 0.0
-1.9292 0.484203 0.0
-1.92117 0.530907 0.0
-1.96363 0.636364 0.0
-1.93076 0.576923 0.0
-1.89958 0 0.0
-1.88703 0.0375 0.0
-1.90963 0.08 0.0
-1.86611 0.0666666 0.0
-1.93749 0.775 0.0
-1.93635 0.672727 0.0
-1.92999 0.72 0.0
-1.93332 0.866667 0.0
-1.92856 0.821429 0.0
-1.94999 1 0.0
-1.92499 0.9625 0.0
-1.92499 0.925 0.0
-1.89998 0.9 0.0
-1.89958 0.125 0.0
-1.92827 0.178571 0.0
-1.89958 0.233333 0.0
-1.89045 0.290909 0.0
-1.86096 0.311538 0.0
-1.89241 0.392857 0.0
-1.89334 0.448489 0.0
-1.85655 0.357143 0.0
-1.89614 0.653846 0.0
-1.89427 0.504121 0.0
-1.8952 0.559753 0.0
-1.89614 0.615385 0.0
-1.84937 0 0.0
-1.83264 0.0333333 0.0
-1.85655 0.107143 0.0
-1.81172 0.075 0.0
-1.89998 0.766667 0.0
-1.89089 0.709091 0.0
-1.87498 0.85 0.0
-1.85998 0.79 0.0
-1.88748 0.8125 0.0
-1.89998 1 0.0
-1.88748 0.9625 0.0
-1.86664 0.933333 0.0
-1.85712 0.892857 0.0
-1.87448 0.15 0.0
-1.86611 0.194444 0.0
-1.83264 0.133333 0.0
-1.83264 0.2625 0.0
-1.82068 0.321429 0.0
-1.85664 0.404762 0.0
-1.85674 0.452381 0.0
-1.85683 0.5 0.0
-1.81184 0.375 0.0
-1.85712 0.642857 0.0
-1.85693 0.547619 0.0
-1.85702 0.595238 0.0
-1.79917 0 0.0
-1.78482 0.0357143 0.0
-1.79917 0.116667 0.0
-1.76569 0.0666666 0.0
-1.85452 0.745455 0.0
-1.82689 0.692308 0.0
-1.81815 0.781818 0.0
-1.82497 0.825 0.0
-1.84997 1 0.0
-1.8333 0.958333 0.0
-1.81247 0.8875 0.0
-1.81247 0.925 0.0
-1.81742 0.218182 0.0
-1.82427 0.175 0.0
-1.77634 0.145455 0.0
-1.79144 0.242308 0.0
-1.78482 0.285714 0.0
-1.77469 0.332653 0.0
-1.81215 0.529762 0.0
-1.81194 0.422619 0.0
-1.81203 0.470238 0.0
-1.76714 0.392857 0.0
-1.81234 0.625 0.0
-1.79732 0.571429 0.0
-1.74896 0 0.0
-1.73222 0.0333333 0.0
-1.75398 0.105 0.0
-1.71883 0.07 0.0
-1.79227 0.730769 0.0
-1.78007 0.679121 0.0
-1.75765 0.769231 0.0
-1.78178 0.818182 0.0
-1.78996 0.86 0.0
-1.79996 1 0.0
-1.78568 0.964286 0.0
-1.76663 0.922222 0.0
-1.76569 0.1875 0.0
-1.73222 0.15 0.0
-1.74896 0.25 0.0
-1.73714 0.304762 0.0
-1.76743 0.537202 0.0
-1.72869 0.343878 0.0
-1.76732 0.485119 0.0
-1.76723 0.440476 0.0
-1.72243 0.410714 0.0
-1.76757 0.607143 0.0
-1.69875 0 0.0
-1.68369 0.035 0.0
-1.69875 0.1125 0.0
-1.66528 0.075 0.0
-1.74341 0.708974 0.0
-1.73324 0.665934 0.0
-1.70441 0.74478 0.0
-1.71423 0.785714 0.0
-1.72303 0.826923 0.0
-1.74541 0.854545 0.0
-1.74541 0.890909 0.0
-1.74996 1 0.0
-1.73745 0.9625 0.0
-1.71359 0.927273 0.0
-1.68716 0.153846 0.0
-1.7131 0.214286 0.0
-1.70725 0.275 0.0
-1.69712 0.321939 0.0
-1.72279 0.589286 0.0
-1.72261 0.5 0.0
-1.7227 0.544643 0.0
-1.6827 0.355102 0.0
-1.67773 0.428571 0.0
-1.70763 0.464286 0.0
-1.70369 0.62449 0.0
-1.64854 0 0.0
-1.63181 0.0375 0.0
-1.64137 0.142857 0.0
-1.61764 0.0769231 0.0
-1.69458 0.703846 0.0
-1.67471 0.657437 0.0
-1.66143 0.727637 0.0
-1.67125 0.768571 0.0
-1.67851 0.821429 0.0
-1.68841 0.861538 0.0
-1.70904 0.890909 0.0
-1.69995 1 0.0
-1.68176 0.963636 0.0
-1.67267 0.927273 0.0
-1.65427 0.187143 0.0
-1.66718 0.231429 0.0
-1.66554 0.3 0.0
-1.67802 0.571429 0.0
-1.67792 0.523809 0.0
-1.6367 0.366327 0.0
-1.63682 0.423469 0.0
-1.62568 0.502976 0.0
-1.6629 0.470238 0.0
-1.65254 0.618367 0.0
-1.6059 0.307143 0.0
-1.59833 0 0.0
-1.58288 0.0384615 0.0
-1.60563 0.169643 0.0
-1.58179 0.112271 0.0
-1.56964 0.0714286 0.0
-1.64574 0.690385 0.0
-1.62827 0.751429 0.0
-1.63371 0.791071 0.0
-1.64279 0.857143 0.0
-1.65378 0.896154 0.0
-1.64994 1 0.0
-1.6363 0.963636 0.0
-1.61916 0.930769 0.0
-1.61345 0.209107 0.0
-1.62126 0.248571 0.0
-1.56989 0.196429 0.0
-1.63324 0.553571 0.0
-1.58846 0.535714 0.0
-1.59408 0.361905 0.0
-1.59161 0.402211 0.0
-1.58832 0.464286 0.0
-1.61504 0.598581 0.0
-1.59683 0.64359 0.0
-1.57899 0.274107 0.0
-1.56176 0.322381 0.0
-1.54812 0 0.0
-1.53378 0.0357143 0.0
-1.54593 0.147619 0.0
-1.53385 0.0732143 0.0
-1.53393 0.110714 0.0
-1.58522 0.704286 0.0
-1.58709 0.745 0.0
-1.58896 0.785714 0.0
-1.60695 0.830357 0.0
-1.60707 0.892857 0.0
-1.59993 1 0.0
-1.58454 0.965385 0.0
-1.57135 0.928571 0.0
-1.55209 0.241071 0.0
-1.5291 0.198214 0.0
-1.56936 0.570918 0.0
-1.54369 0.517857 0.0
-1.5464 0.380952 0.0
-1.54564 0.427721 0.0
-1.54488 0.47449 0.0
-1.55026 0.606122 0.0
-1.54222 0.677143 0.0
-1.52943 0.282857 0.0
-1.52143 0.33619 0.0
-1.49792 0 0.0
-1.49802 0.05 0.0
-1.49822 0.15 0.0
-1.49312 0.1 0.0
-1.5423 0.717143 0.0
-1.54419 0.767857 0.0
-1.54727 0.819048 0.0
-1.57122 0.861905 0.0
-1.53553 0.914286 0.0
-1.54992 1 0.0
-1.53563 0.964286 0.0
-1.49842 0.25 0.0
-1.48831 0.2 0.0
-1.5214 0.558929 0.0
-1.49891 0.5 0.0
-1.49871 0.4 0.0
-1.47631 0.45 0.0
-1.49911 0.6 0.0
-1.49921 0.65 0.0
-1.49931 0.7 0.0
-1.48111 0.35 0.0
-1.48351 0.3 0.0
-1.44771 0 0.0
-1.44782 0.05 0.0
-1.44804 0.15 0.0
-1.44793 0.1 0.0
-1.49941 0.75 0.0
-1.49951 0.8 0.0
-1.49981 0.95 0.0
-1.49961 0.85 0.0
-1.49971 0.9 0.0
-1.49991 1 0.0
-1.44826 0.25 0.0
-1.43815 0.2 0.0
-1.47151 0.55 0.0
-1.44881 0.5 0.0
-1.44859 0.4 0.0
-1.42619 0.45 0.0
-1.44913 0.65 0.0
-1.44902 0.6 0.0
-1.44935 0.75 0.0
-1.44924 0.7 0.0
-1.43972 0.35 0.0
-1.43336 0.3 0.0
-1.3975 0 0.0
-1.39762 0.05 0.0
-1.39786 0.15 0.0
-1.39274 0.1 0.0
-1.44957 0.85 0.0
-1.44946 0.8 0.0
-1.4523 0.95 0.0
-1.44968 0.9 0.0
-1.4499 1 0.0
-1.3981 0.25 0.0
-1.38798 0.2 0.0
-1.42141 0.55 0.0
-1.3987 0.5 0.0
-1.39834 0.35 0.0
-1.37845 0.4 0.0
-1.37607 0.45 0.0
-1.40784 0.65 0.0
-1.39894 0.6 0.0
-1.41185 0.75 0.0
-1.39918 0.7 0.0
-1.38322 0.3 0.0
-1.34729 0 0.0
-1.34492 0.05 0.0
-1.34018 0.15 0.0
-1.34255 0.1 0.0
-1.40707 0.85 0.0
-1.39941 0.8 0.0
-1.39977 0.95 0.0
-1.39965 0.9 0.0
-1.39989 1 0.0
-1.33781 0.2 0.0
-1.33544 0.25 0.0
-1.37131 0.55 0.0
-1.34859 0.5 0.0
-1.33833 0.4 0.0
-1.3307 0.35 0.0
-1.32595 0.45 0.0
-1.34885 0.6 0.0
-1.36655 0.65 0.0
-1.36179 0.75 0.0
-1.34911 0.7 0.0
-1.33307 0.3 0.0
-1.29708 0 0.0
-1.29722 0.05 0.0
-1.2975 0.15 0.0
-1.29236 0.1 0.0
-1.35703 0.85 0.0
-1.34937 0.8 0.0
-1.34988 1 0.0
-1.34962 0.9 0.0
-1.35226 0.95 0.0
-1.28528 0.25 0.0
-1.28764 0.2 0.0
-1.28931 0.35 0.0
-1.32121 0.55 0.0
-1.29848 0.5 0.0
-1.28709 0.45 0.0
-1.2982 0.4 0.0
-1.29876 0.6 0.0
-1.31647 0.65 0.0
-1.29918 0.75 0.0
-1.29904 0.7 0.0
-1.28292 0.3 0.0
-1.24687 0 0.0
-1.24702 0.05 0.0
-1.24717 0.1 0.0
-1.24732 0.15 0.0
-1.29946 0.85 0.0
-1.29932 0.8 0.0
-1.29987 1 0.0
-1.29974 0.95 0.0
-1.30462 0.9 0.0
-1.24762 0.25 0.0
-1.23747 0.2 0.0
-1.24792 0.35 0.0
-1.22807 0.4 0.0
-1.27111 0.55 0.0
-1.24837 0.5 0.0
-1.24822 0.45 0.0
-1.24867 0.6 0.0
-1.26639 0.65 0.0
-1.26167 0.75 0.0
-1.24897 0.7 0.0
-1.23277 0.3 0.0
-1.19667 0 0.0
-1.19683 0.05 0.0
-1.18964 0.15 0.0
-1.19198 0.1 0.0
-1.25695 0.85 0.0
-1.24927 0.8 0.0
-1.25223 0.95 0.0
-1.24987 1 0.0
-1.24957 0.9 0.0
-1.1873 0.2 0.0
-1.18496 0.25 0.0
-1.18028 0.35 0.0
-1.17794 0.4 0.0
-1.1981 0.45 0.0
-1.19842 0.55 0.0
-1.19826 0.5 0.0
-1.19858 0.6 0.0
-1.19874 0.65 0.0
-1.19906 0.75 0.0
-1.1989 0.7 0.0
-1.18262 0.3 0.0
-1.14646 0 0.0
-1.14663 0.05 0.0
-1.1418 0.1 0.0
-1.13713 0.2 0.0
-1.14697 0.15 0.0
-1.20691 0.85 0.0
-1.20926 0.8 0.0
-1.20221 0.95 0.0
-1.19986 1 0.0
-1.20456 0.9 0.0
-1.13997 0.3 0.0
-1.14731 0.25 0.0
-1.13781 0.4 0.0
-1.13014 0.35 0.0
-1.12548 0.45 0.0
-1.14815 0.5 0.0
-1.15962 0.55 0.0
-1.14849 0.6 0.0
-1.15745 0.65 0.0
-1.16155 0.75 0.0
-1.14917 0.8 0.0
-1.14883 0.7 0.0
-1.09625 0 0.0
-1.09661 0.1 0.0
-1.09393 0.05 0.0
-1.09697 0.2 0.0
-1.08929 0.15 0.0
-1.15687 0.85 0.0
-1.14985 1 0.0
-1.15219 0.95 0.0
-1.14951 0.9 0.0
-1.09733 0.3 0.0
-1.08465 0.25 0.0
-1.09769 0.4 0.0
-1.08 0.35 0.0
-1.08661 0.45 0.0
-1.09804 0.5 0.0
-1.12082 0.55 0.0
-1.10916 0.8 0.0
-1.10629 0.7 0.0
-1.0984 0.6 0.0
-1.11616 0.65 0.0
-1.11149 0.75 0.0
-1.04604 0 0.0
-1.04623 0.05 0.0
-1.04642 0.1 0.0
-1.0468 0.2 0.0
-1.03911 0.15 0.0
-1.09948 0.9 0.0
-1.0993 0.85 0.0
-1.09984 1 0.0
-1.09966 0.95 0.0
-1.04718 0.3 0.0
-1.03449 0.25 0.0
-1.04756 0.4 0.0
-1.02986 0.35 0.0
-1.04775 0.45 0.0
-1.04794 0.5 0.0
-1.04813 0.55 0.0
-1.05911 0.8 0.0
-1.04831 0.6 0.0
-1.06376 0.7 0.0
-1.0485 0.65 0.0
-1.04888 0.75 0.0
-0.995833 0 0.0
-0.991231 0.1 0.0
-0.996033 0.05 0.0
-0.986629 0.2 0.0
-0.98893 0.15 0.0
-1.05447 0.9 0.0
-1.04926 0.85 0.0
-1.04983 1 0.0
-1.04964 0.95 0.0
-0.984328 0.25 0.0
-0.99703 0.3 0.0
-0.997429 0.4 0.0
-0.997628 0.45 0.0
-0.979726 0.35 0.0
-0.997827 0.5 0.0
-0.998027 0.55 0.0
-0.998226 0.6 0.0
-0.961416 0.475 0.0
-1.00907 0.8 0.0
-0.998426 0.65 0.0
-0.998625 0.7 0.0
-1.01138 0.75 0.0
-0.945625 0 0.0
-0.946044 0.1 0.0
-0.943334 0.05 0.0
-0.946463 0.2 0.0
-0.938752 0.15 0.0
-1.00444 0.9 0.0
-1.00675 0.85 0.0
-0.999821 1 0.0
-1.00213 0.95 0.0
-0.93417 0.25 0.0
-0.946881 0.3 0.0
-0.9473 0.4 0.0
-0.929588 0.35 0.0
-0.925005 0.45 0.0
-0.960371 0.525 0.0
-0.959325 0.575 0.0
-0.958279 0.625 0.0
-0.922714 0.5 0.0
-0.959017 0.8 0.0
-0.957233 0.675 0.0
-0.952999 0.7125 0.0
-0.948766 0.75 0.0
-0.895417 0 0.0
-0.895855 0.1 0.0
-0.893136 0.05 0.0
-0.896294 0.2 0.0
-0.888573 0.15 0.0
-0.949184 0.85 0.0
-0.954415 0.9 0.0
-0.949812 1 0.0
-0.949603 0.95 0.0
-0.884011 0.25 0.0
-0.896733 0.3 0.0
-0.874887 0.45 0.0
-0.879449 0.35 0.0
-0.897171 0.4 0.0
-0.920423 0.55 0.0
-0.918132 0.6 0.0
-0.915841 0.65 0.0
-0.872606 0.5 0.0
-0.908968 0.8 0.0
-0.91355 0.7 0.0
-0.898707 0.75 0.0
-0.845208 0 0.0
-0.845438 0.05 0.0
-0.845667 0.1 0.0
-0.845896 0.15 0.0
-0.833853 0.25 0.0
-0.846126 0.2 0.0
-0.899146 0.85 0.0
-0.904386 0.9 0.0
-0.899584 0.95 0.0
-0.899804 1 0.0
-0.838062 0.35 0.0
[...]
POINT_DATA 10839
VECTORS Velocity float
0.21 0 0.0
0.24 0 0.0
0.2275 0 0.0
0.2475 0 0.0
0.25 0 0.0
0.2475 0 0.0
0 0 0.0
0.0475 0 0.0
0.1275 0 0.0
0.09 0 0.0
0.09 0 0.0
0.1275 0 0.0
0.1875 0 0.0
0.16 0 0.0
0.195557 -2.44028e-05 0.0
0.242841 -3.3256e-05 0.0
0.215776 -2.90321e-05 0.0
0.231406 -3.2718e-05 0.0
0.248725 -3.54037e-05 0.0
0.24 0 0.0
0.24284 -3.31817e-05 0.0
0.24852 -3.40959e-05 0.0
0 0 0.0
0.062224 -4.274e-06 0.0
0.0322271 -2.826e-06 0.0
0.16 0 0.0
0.1875 0 0.0
0.21 0 0.0
0.2275 0 0.0
0.193592 -2.73914e-05 0.0
0.138887 -1.52336e-05 0.0
0 0 0.0
0.0475 0 0.0
0.0998414 -1.05955e-05 0.0
0.0622205 -4.32215e-06 0.0
0.0998462 -1.10697e-05 0.0
0.138891 -1.53676e-05 0.0
0.17438 -3.84631e-05 0.0
0.201606 -5.26514e-05 0.0
0.235787 -6.42455e-05 0.0
0.244085 -6.72151e-05 0.0
0.223602 -8.61069e-05 0.0
0.249751 -7.02188e-05 0.0
0.249044 -7.82375e-05 0.0
0.231404 -3.32481e-05 0.0
0.244081 -6.64215e-05 0.0
0 0 0.0
0.0361084 -5.46055e-06 0.0
0.0736129 -1.52487e-05 0.0
0.0622496 -1.67061e-05 0.0
0.17437 -3.7901e-05 0.0
0.220162 -5.26212e-05 0.0
0.201594 -5.2731e-05 0.0
0.115548 -2.27609e-05 0.0
0.146676 -3.52318e-05 0.0
0 0 0.0
0.0360873 -3.6817e-06 0.0
0.0693659 -1.19293e-05 0.0
0.0899832 -2.36478e-05 0.0
0.109391 -3.19663e-05 0.0
0.146692 -3.45474e-05 0.0
0.178902 -6.44597e-05 0.0
0.206293 -8.42374e-05 0.0
0.214501 -0.000113467 0.0
0.238527 -0.00010066 0.0
0.24735 -0.000104808 0.0
0.229607 -0.00012809 0.0
0.226323 -9.04712e-05 0.0
0.249983 -0.000105324 0.0
0.246426 -0.000102474 0.0
0.23668 -9.64959e-05 0.0
0 0 0.0
0.0322511 -6.17139e-06 0.0
0.0956971 -3.62966e-05 0.0
0.0694301 -2.73598e-05 0.0
0.178876 -6.34831e-05 0.0
0.206269 -8.48766e-05 0.0
0.127476 -4.89795e-05 0.0
0.165873 -8.03205e-05 0.0
0.152325 -5.75528e-05 0.0
0 0 0.0
0.0360793 -5.28929e-06 0.0
0.0621953 -1.65315e-05 0.0
0.0956295 -3.69898e-05 0.0
0.127525 -4.94476e-05 0.0
0.156661 -7.17871e-05 0.0
0.115601 -5.67593e-05 0.0
0.193627 -0.000118288 0.0
0.218142 -0.000149628 0.0
0.24094 -0.000136463 0.0
0.247737 -0.000141514 0.0
0.25 -0.000143056 0.0
0.234398 -0.000173177 0.0
0.229576 -0.000126326 0.0
0.247727 -0.000141204 0.0
0.240919 -0.000136225 0.0
0 0 0.0
0.034488 -8.54441e-06 0.0
0.103122 -5.57645e-05 0.0
0.0623042 -2.77159e-05 0.0
0.189727 -0.000100561 0.0
0.212988 -0.000140386 0.0
0.170533 -0.000108892 0.0
0.144329 -8.08545e-05 0.0
0 0 0.0
0.0398975 -9.10114e-06 0.0
0.0997855 -5.07123e-05 0.0
0.0693204 -2.69174e-05 0.0
0.170625 -0.000109006 0.0
0.144422 -8.25978e-05 0.0
0.124378 -8.3748e-05 0.0
0.18365 -0.000137747 0.0
0.204132 -0.000164874 0.0
0.222039 -0.000194079 0.0
0.249109 -0.00018775 0.0
0.244027 -0.000182753 0.0
0.24912 -0.000187758 0.0
0.238551 -0.000220395 0.0
0.234353 -0.000172165 0.0
0.244882 -0.000197903 0.0
0 0 0.0
0.0322929 -9.04959e-06 0.0
0.0940754 -5.86173e-05 0.0
0.0652189 -3.50572e-05 0.0
0.196695 -0.000150616 0.0
0.217871 -0.00018499 0.0
0.177437 -0.000152863 0.0
0.148689 -0.000106726 0.0
0.120328 -7.47557e-05 0.0
0 0 0.0
0.03439 -8.63143e-06 0.0
0.0716431 -3.51849e-05 0.0
0.152425 -0.000119664 0.0
0.127616 -0.000103966 0.0
0.187579 -0.000170768 0.0
0.211952 -0.000212649 0.0
0.248605 -0.000232993 0.0
0.225686 -0.000240886 0.0
0.249783 -0.00023468 0.0
0.246474 -0.000230731 0.0
0.242065 -0.000269938 0.0
0.23849 -0.000219782 0.0
0 0 0.0
0.0338756 -1.13426e-05 0.0
0.0999948 -7.82697e-05 0.0
0.0695471 -4.66764e-05 0.0
0.20626 -0.000199118 0.0
0.222404 -0.000232063 0.0
0.189974 -0.000206883 0.0
0.168252 -0.000167139 0.0
0.143002 -0.000128261 0.0
0.124193 -9.46906e-05 0.0
0.0970827 -6.36393e-05 0.0
0 0 0.0
0.0360198 -1.09925e-05 0.0
0.0673133 -3.77092e-05 0.0
0.130336 -0.000125613 0.0
0.168483 -0.000167923 0.0
0.199474 -0.000219003 0.0
0.218379 -0.000256968 0.0
0.241992 -0.0002706 0.0
0.25 -0.00028245 0.0
0.247989 -0.000279162 0.0
0.229082 -0.000289907 0.0
0.244938 -0.000321349 0.0
0.248741 -0.000296363 0.0
0.234445 -0.00027723 0.0
0 0 0.0
0.0362344 -1.46241e-05 0.0
0.122661 -0.000128675 0.0
0.0712318 -5.52101e-05 0.0
0.208349 -0.000243453 0.0
0.225125 -0.000289662 0.0
0.198047 -0.000252728 0.0
0.177724 -0.000209342 0.0
0.146524 -0.000154446 0.0
0.11913 -0.000107964 0.0
0.0970495 -7.21872e-05 0.0
0 0 0.0
0.0349373 -1.23102e-05 0.0
0.0672756 -4.24595e-05 0.0
0.152303 -0.000175507 0.0
0.178019 -0.000214266 0.0
0.210117 -0.000270988 0.0
0.244858 -0.000321258 0.0
0.24942 -0.000330022 0.0
0.232226 -0.000340922 0.0
0.244198 -0.00036551 0.0
0.249988 -0.000390071 0.0
0.249132 -0.00034673 0.0
0.235912 -0.000331897 0.0
0.212965 -0.000330778 0.0
0 0 0.0
0.0371637 -1.72292e-05 0.0
0.141113 -0.00017904 0.0
0.0999607 -0.000108347 0.0
0.0666029 -5.38142e-05 0.0
0.213628 -0.000296101 0.0
0.186605 -0.000257813 0.0
0.165082 -0.000209871 0.0
0.122238 -0.000129443 0.0
0.0928636 -7.91782e-05 0.0
0 0 0.0
0.0349072 -1.37475e-05 0.0
0.0642239 -4.51e-05 0.0
0.165599 -0.000224287 0.0
0.186969 -0.000263553 0.0
0.158126 -0.000234624 0.0
0.247091 -0.000375326 0.0
0.248691 -0.00043124 0.0
0.231053 -0.000382726 0.0
0.240527 -0.000408414 0.0
0.248758 -0.000430886 0.0
0.240202 -0.000381725 0.0
0.229255 -0.000375009 0.0
0.199184 -0.000323797 0.0
0.218636 -0.000386882 0.0
0 0 0.0
0.0346518 -1.69078e-05 0.0
0.126173 -0.000173999 0.0
0.0681819 -6.08053e-05 0.0
0.0988235 -0.00011798 0.0
0.208081 -0.000338522 0.0
0.189757 -0.000295232 0.0
0.168123 -0.000245139 0.0
0.140617 -0.000177733 0.0
0.0954058 -9.41744e-05 0.0
0 0 0.0
0.0332508 -1.40726e-05 0.0
0.0660525 -5.37004e-05 0.0
0.183226 -0.000305925 0.0
0.159266 -0.000262509 0.0
0.244898 -0.000444541 0.0
0.24966 -0.000487853 0.0
0.235962 -0.000447657 0.0
0.244859 -0.000473123 0.0
0.249378 -0.000486718 0.0
0.238619 -0.000450048 0.0
0.218418 -0.00040681 0.0
0.203107 -0.000377602 0.0
0.223372 -0.00044218 0.0
0 0 0.0
0.0478097 -3.37282e-05 0.0
0.127925 -0.000198332 0.0
0.0904285 -0.000110812 0.0
0.202606 -0.000363761 0.0
0.177964 -0.000299319 0.0
0.147884 -0.000224824 0.0
0.118716 -0.000147588 0.0
0.078023 -7.91154e-05 0.0
0 0 0.0
0.0342285 -1.65826e-05 0.0
0.187835 -0.000362049 0.0
0.160405 -0.000292019 0.0
0.246451 -0.000507728 0.0
0.25 -0.000546948 0.0
0.240141 -0.000516577 0.0
0.247577 -0.000569312 0.0
0.239858 -0.000516052 0.0
0.22729 -0.000477845 0.0
0.209726 -0.000425233 0.0
0.227726 -0.00050164 0.0
0.210292 -0.000443149 0.0
0 0 0.0
0.0478738 -3.76335e-05 0.0
0.128021 -0.000221362 0.0
0.0905113 -0.000121838 0.0
0.187167 -0.000360116 0.0
0.159614 -0.000282495 0.0
0.0471941 -3.31039e-05 0.0
0.127079 -0.000195686 0.0
0.0895844 -0.000108578 0.0
0 0 0.0
0.187911 -0.000406728 0.0
0.160496 -0.000326765 0.0
0.247419 -0.000575693 0.0
0.249999 -0.000615964 0.0
0.240174 -0.000582176 0.0
0.247595 -0.000639808 0.0
0.227243 -0.000537732 0.0
0.239825 -0.000580807 0.0
0.18709 -0.000404364 0.0
0.209663 -0.000478196 0.0
0.227767 -0.000550522 0.0
0.210358 -0.000497999 0.0
0 0 0.0
0.0479444 -4.12507e-05 0.0
0.128128 -0.0002461 0.0
0.0906236 -0.00013663 0.0
0.126983 -0.000219264 0.0
0.159527 -0.000316866 0.0
0.0471341 -3.67166e-05 0.0
0.0894938 -0.000120677 0.0
0 0 0.0
0.187998 -0.000454145 0.0
0.160598 -0.00036423 0.0
0.247401 -0.000645856 0.0
0.249999 -0.000689841 0.0
0.227811 -0.000603794 0.0
0.240225 -0.000680651 0.0
0.247613 -0.000715944 0.0
0.227197 -0.000588459 0.0
0.239789 -0.00065034 0.0
0.187026 -0.000438391 0.0
0.209592 -0.000534761 0.0
0.210432 -0.00055665 0.0
0 0 0.0
0.0480273 -4.58622e-05 0.0
0.128266 -0.000276802 0.0
0.0907381 -0.000150898 0.0
0.126894 -0.00023948 0.0
0.159427 -0.00035277 0.0
0.0470612 -4.07983e-05 0.0
0.0893935 -0.000133242 0.0
0 0 0.0
0.160712 -0.000404059 0.0
0.188122 -0.000517769 0.0
0.247381 -0.000721106 0.0
0.249998 -0.000769223 0.0
0.240259 -0.000743335 0.0
0.227896 -0.000698386 0.0
0.247635 -0.000796776 0.0
0.239747 -0.000724435 0.0
0.227149 -0.000643885 0.0
0.186933 -0.000487498 0.0
0.209512 -0.000594885 0.0
0.210515 -0.00062025 0.0
0 0 0.0
0.0481108 -5.06104e-05 0.0
0.128381 -0.000301835 0.0
0.0908643 -0.000166448 0.0
0.126778 -0.000265061 0.0
0.159317 -0.000391636 0.0
0 0 0.0
0.0892815 -0.000147453 0.0
0.0469877 -4.48585e-05 0.0
0.188233 -0.000576179 0.0
0.16084 -0.00044795 0.0
0.227954 -0.000761778 0.0
0.247358 -0.000802795 0.0
0.249997 -0.000855376 0.0
0.247653 -0.000865143 0.0
0.240297 -0.000809011 0.0
0.2397 -0.0008048 0.0
0.227083 -0.000715703 0.0
0.186799 -0.000553791 0.0
0.209423 -0.000660723 0.0
0.210607 -0.000688387 0.0
0 0 0.0
0.0482055 -5.57372e-05 0.0
0.0909895 -0.000181274 0.0
0.128528 -0.000332957 0.0
0.126628 -0.000297083 0.0
0.159193 -0.000433527 0.0
0 0 0.0
0.0468995 -4.94054e-05 0.0
0.0891718 -0.000160619 0.0
0.188327 -0.000621773 0.0
0.160982 -0.000495824 0.0
0.228016 -0.000830064 0.0
0.240368 -0.000935395 0.0
0.247333 -0.000891494 0.0
0.249996 -0.000948365 0.0
0.247673 -0.000937248 0.0
0.239647 -0.00089182 0.0
0.227009 -0.000793659 0.0
0.18671 -0.000597742 0.0
0.209323 -0.000730869 0.0
0.210711 -0.000763474 0.0
0 0 0.0
0.0483109 -6.10945e-05 0.0
0.128718 -0.000373568 0.0
0.0911587 -0.000202215 0.0
0.126505 -0.000323229 0.0
0.159056 -0.000479004 0.0
0.0468112 -5.37811e-05 0.0
0 0 0.0
0.0890239 -0.000178602 0.0
0.16114 -0.000548159 0.0
0.188497 -0.000704765 0.0
0.228133 -0.000952723 0.0
0.240428 -0.00103805 0.0
0.247699 -0.00103915 0.0
0.24729 -0.00103119 0.0
0.249994 -0.00105161 0.0
0.239589 -0.000988596 0.0
0.226896 -0.000907411 0.0
0.186546 -0.00067601 0.0
0.209212 -0.000808514 0.0
0.210825 -0.000845227 0.0
0 0 0.0
0.0484254 -6.67433e-05 0.0
0.0913283 -0.000221296 0.0
0.161315 -0.000603826 0.0
0.128874 -0.000404989 0.0
0.126347 -0.000356477 0.0
0.158936 -0.00051832 0.0
0.0467082 -5.96557e-05 0.0
0 0 0.0
0.0888882 -0.000195315 0.0
0.210932 -0.00092154 0.0
0.188614 -0.000761705 0.0
0.240479 -0.0011252 0.0
0.22823 -0.00105783 0.0
0.247744 -0.00120105 0.0
0.249992 -0.00116278 0.0
0.247263 -0.00111459 0.0
0.239523 -0.00109181 0.0
0.226818 -0.000984442 0.0
0.186436 -0.000727735 0.0
0.158737 -0.000583372 0.0
0.20909 -0.000891411 0.0
0 0 0.0
0.0914984 -0.000241355 0.0
0.04856 -7.38278e-05 0.0
0.16147 -0.000655318 0.0
0.129107 -0.000454439 0.0
0.126173 -0.000393599 0.0
0 0 0.0
0.0465949 -6.59563e-05 0.0
0.0887074 -0.000217809 0.0
0.211051 -0.00100325 0.0
0.188824 -0.000866156 0.0
0.240534 -0.00121943 0.0
0.228338 -0.00117246 0.0
0.247769 -0.00130144 0.0
0.249987 -0.00128587 0.0
0.247234 -0.00120637 0.0
0.158591 -0.000628344 0.0
0.208976 -0.00096755 0.0
0.239449 -0.00120334 0.0
0.226733 -0.00106813 0.0
0.186278 -0.000802532 0.0
0 0 0.0
0.0486918 -8.00991e-05 0.0
0.0917019 -0.000264575 0.0
0.161684 -0.000723612 0.0
0.129335 -0.000501516 0.0
0.0885239 -0.000240101 0.0
0.12595 -0.000440681 0.0
0 0 0.0
0.0464637 -7.35416e-05 0.0
0.211203 -0.00111121 0.0
0.189018 -0.000960279 0.0
0.240609 -0.00134965 0.0
0.228456 -0.00130003 0.0
0.247796 -0.00140922 0.0
0.249983 -0.00142203 0.0
0.247171 -0.0013888 0.0
0.158394 -0.000691522 0.0
0.239368 -0.00132736 0.0
0.208852 -0.00104696 0.0
0.226579 -0.00121801 0.0
0.186057 -0.000907363 0.0
0 0 0.0
0.0919524 -0.000293881 0.0
0.048843 -8.75806e-05 0.0
0.16197 -0.000816882 0.0
0.129588 -0.000554161 0.0
0.0883438 -0.000263037 0.0
0.125736 -0.000487382 0.0
0 0 0.0
0.0463233 -8.18397e-05 0.0
0.18923 -0.00106698 0.0
0.211372 -0.00123318 0.0
0.240692 -0.00149683 0.0
0.247834 -0.00155637 0.0
0.228586 -0.00144172 0.0
0.249974 -0.00156824 0.0
0.247121 -0.00153505 0.0
0.239277 -0.00145981 0.0
0.249538 -0.00168749 0.0
0.158176 -0.00076026 0.0
0.226448 -0.00134063 0.0
0.20864 -0.00118355 0.0
0.18591 -0.000973805 0.0
0 0 0.0
0.0921827 -0.00032148 0.0
0.0490208 -9.70244e-05 0.0
0.162186 -0.000889405 0.0
0.12987 -0.000613992 0.0
0.0881248 -0.00029087 0.0
0.125537 -0.000529866 0.0
0 0 0.0
0.0461772 -9.06562e-05 0.0
0.189468 -0.00118659 0.0
0.211559 -0.00137076 0.0
0.240775 -0.00165689 0.0
0.22873 -0.00160346 0.0
0.247887 -0.00180433 0.0
0.249144 -0.00167765 0.0
0.243758 -0.00161966 0.0
0.233386 -0.00151516 0.0
0.249955 -0.00182205 0.0
0.157939 -0.000834224 0.0
0.218032 -0.00136948 0.0
0.203236 -0.00123917 0.0
0.185645 -0.00109117 0.0
0 0 0.0
0.0924612 -0.000356328 0.0
0.0492048 -0.000106201 0.0
0.162481 -0.000991531 0.0
0.130185 -0.00068409 0.0
0.125245 -0.000591482 0.0
0.0878832 -0.000321657 0.0
0 0 0.0
0.045999 -0.000100482 0.0
0.189734 -0.00132431 0.0
0.211766 -0.00152688 0.0
0.247921 -0.00199556 0.0
0.228885 -0.00178394 0.0
0.240874 -0.00183998 0.0
0.247025 -0.00178654 0.0
0.239104 -0.00169921 0.0
0.226199 -0.00156395 0.0
0.249931 -0.00201165 0.0
0.157679 -0.000914146 0.0
0.208319 -0.0013833 0.0
0.185408 -0.0011938 0.0
0 0 0.0
0.0494005 -0.000116981 0.0
0.0927734 -0.000398714 0.0
0.130484 -0.000752758 0.0
0.190028 -0.00148056 0.0
0.162813 -0.00111014 0.0
0.124965 -0.000648403 0.0
0.0876179 -0.000354671 0.0
0.0458084 -0.000111478 0.0
0 0 0.0
0.229024 -0.00195231 0.0
0.211995 -0.00170736 0.0
0.24795 -0.00216269 0.0
0.240971 -0.00204756 0.0
0.226024 -0.00171109 0.0
0.246946 -0.00196613 0.0
0.238973 -0.00186497 0.0
0.249903 -0.00222098 0.0
0.185152 -0.00129909 0.0
0.157341 -0.00101093 0.0
0.208033 -0.00154984 0.0
0 0 0.0
0.0496299 -0.000132306 0.0
0.0931644 -0.000454375 0.0
0.130874 -0.000847436 0.0
0.190269 -0.00161965 0.0
0.163262 -0.00128547 0.0
0.124663 -0.000706073 0.0
0.087301 -0.000391606 0.0
0.045601 -0.000122333 0.0
0 0 0.0
0.124333 -0.000765201 0.0
0.229171 -0.00213201 0.0
0.212325 -0.00198565 0.0
0.241117 -0.00238297 0.0
0.247975 -0.00234077 0.0
0.225756 -0.00192496 0.0
0.238828 -0.00204216 0.0
0.246855 -0.00216453 0.0
0.249856 -0.00245279 0.0
0.184871 -0.00140812 0.0
0.157028 -0.00109771 0.0
0.207786 -0.00168824 0.0
0 0 0.0
0.0498895 -0.000149594 0.0
0.0935707 -0.000517736 0.0
0.131315 -0.00096357 0.0
0.190625 -0.00182398 0.0
0.163691 -0.0014599 0.0
0.0453697 -0.00013525 0.0
0.0869822 -0.000426954 0.0
0 0 0.0
0.124036 -0.000810749 0.0
0.229362 -0.00239093 0.0
0.212609 -0.00223609 0.0
0.241223 -0.00265726 0.0
0.247997 -0.00260089 0.0
0.225562 -0.00206713 0.0
0.238661 -0.00223346 0.0
0.249799 -0.00271011 0.0
0.24669 -0.00248353 0.0
0.184639 -0.00148822 0.0
0.156691 -0.00118022 0.0
0.207511 -0.00182688 0.0
0 0 0.0
0.050184 -0.000171334 0.0
0.0940339 -0.0005936 0.0
0.131893 -0.00112449 0.0
0.191117 -0.00213156 0.0
0.212916 -0.00252793 0.0
0.164166 -0.00166849 0.0
0.0451364 -0.000145598 0.0
0.0866436 -0.000459521 0.0
0 0 0.0
0.123663 -0.000862014 0.0
0.229634 -0.00278876 0.0
0.241306 -0.00290807 0.0
0.248012 -0.00289074 0.0
0.249737 -0.00292396 0.0
0.225354 -0.00220987 0.0
0.238459 -0.00244424 0.0
0.246543 -0.00272776 0.0
0.156325 -0.00125898 0.0
0.184308 -0.0015974 0.0
0.207202 -0.00196943 0.0
0 0 0.0
0.0505483 -0.000199917 0.0
0.0945722 -0.000690774 0.0
0.132476 -0.00130118 0.0
0.191448 -0.0023541 0.0
0.213243 -0.00285732 0.0
0.164702 -0.00191489 0.0
0.0448721 -0.000155811 0.0
0.0862832 -0.000488734 0.0
0 0 0.0
0.156013 -0.0013101 0.0
0.0859084 -0.000510445 0.0
0.123206 -0.000910832 0.0
0.229847 -0.00315481 0.0
0.241383 -0.00317228 0.0
0.248001 -0.00337203 0.0
0.249666 -0.0031483 0.0
0.24641 -0.00293568 0.0
0.225067 -0.0023913 0.0
0.23813 -0.00276037 0.0
0.183843 -0.00172579 0.0
0.20691 -0.00209705 0.0
0.230032 -0.00347651 0.0
0 0 0.0
0.0509512 -0.000233767 0.0
0.133142 -0.00151434 0.0
0.0951943 -0.000809735 0.0
0.213601 -0.0032502 0.0
0.192047 -0.00278089 0.0
0.1653 -0.00220672 0.0
0.0445818 -0.000163266 0.0
0 0 0.0
0.183531 -0.00180248 0.0
0.155591 -0.00137255 0.0
0.122783 -0.000946672 0.0
0.0442842 -0.000173552 0.0
0.0855159 -0.000528679 0.0
0.241479 -0.00355463 0.0
0.247975 -0.00366776 0.0
0.249535 -0.00348039 0.0
0.249416 -0.00375772 0.0
0.246249 -0.00315353 0.0
0.224729 -0.00258547 0.0
0.237827 -0.00300721 0.0
0.206584 -0.00221394 0.0
0.230205 -0.00383871 0.0
0.0514028 -0.000273964 0.0
0 0 0.0
0.133781 -0.00172371 0.0
0.0959153 -0.000948852 0.0
0.213977 -0.00369744 0.0
0.192443 -0.00308449 0.0
0.165974 -0.00255271 0.0
0 0 0.0
0.183083 -0.00188915 0.0
0.155042 -0.00142849 0.0
0.122414 -0.000959345 0.0
0.0440007 -0.000178086 0.0
0.0851158 -0.000539876 0.0
0.24158 -0.00417839 0.0
0.247936 -0.00398081 0.0
0.249265 -0.00404837 0.0
0.245887 -0.00359691 0.0
0.224347 -0.00278141 0.0
0.237488 -0.00326773 0.0
0.206018 -0.0024019 0.0
0.230434 -0.00434293 0.0
0 0 0.0
0.0519572 -0.000325668 0.0
0.134633 -0.00201424 0.0
0.0966757 -0.00110076 0.0
0.166726 -0.00295171 0.0
0.214376 -0.00421676 0.0
0.193166 -0.00366029 0.0
0 0 0.0
0 0 0.0
0.182576 -0.00197246 0.0
0.154545 -0.00146539 0.0
0.121962 -0.000970998 0.0
0.0847151 -0.000544413 0.0
0.0436978 -0.000180286 0.0
0.241627 -0.00469107 0.0
0.247841 -0.00443947 0.0
0.237163 -0.00349138 0.0
0.249024 -0.00447494 0.0
0.245553 -0.00394887 0.0
0.223896 -0.0029905 0.0
0.205504 -0.00254238 0.0
0.241641 -0.00515499 0.0
0.230637 -0.0049154 0.0
0.0526105 -0.000384465 0.0
0.0976455 -0.00129118 0.0
0.135612 -0.00235831 0.0
0.167399 -0.0033284 0.0
0.214799 -0.00480396 0.0
0.193635 -0.0040766 0.0
0 0 0.0
0 0 0.0
0.154122 -0.00147789 0.0
0.181873 -0.00205647 0.0
0.0843565 -0.00053875 0.0
0.121425 -0.000969615 0.0
0.0433868 -0.000182597 0.0
0.247638 -0.00517732 0.0
0.248708 -0.00495276 0.0
0.204929 -0.00268071 0.0
0.236793 -0.00372018 0.0
0.245258 -0.00424406 0.0
0.223179 -0.00328015 0.0
0.241637 -0.00564043 0.0
0.230921 -0.00580738 0.0
0.215234 -0.00547864 0.0
0.05343 -0.000458962 0.0
0.0987772 -0.00152512 0.0
0.136916 -0.00282011 0.0
0.16833 -0.00384836 0.0
0.194494 -0.00485354 0.0
0 0 0.0
0 0 0.0
0.153446 -0.00149074 0.0
0.18123 -0.00212431 0.0
0.0839327 -0.000527262 0.0
0.120952 -0.000959255 0.0
0.0430758 -0.000181042 0.0
0.24491 -0.00455967 0.0
0.248323 -0.00546719 0.0
0.247404 -0.00578222 0.0
0.204272 -0.00282003 0.0
0.23626 -0.00403374 0.0
0.222539 -0.0035207 0.0
0.180528 -0.00218572 0.0
0.241546 -0.00662495 0.0
0 0 0.0
0.231078 -0.00658553 0.0
0.195249 -0.00558611 0.0
0.21568 -0.00623401 0.0
0.0543138 -0.000542129 0.0
0.138036 -0.00322837 0.0
0.100247 -0.00183479 0.0
0.169587 -0.00460382 0.0
0 0 0.0
0 0 0.0
0 0 0.0
0 0 0.0
0 0 0.0
0.0428004 -0.000177191 0.0
0.120474 -0.000944531 0.0
0.152835 -0.00149895 0.0
0.0835801 -0.000518805 0.0
0.244382 -0.0049854 0.0
0.247842 -0.00604187 0.0
0.247118 -0.00644631 0.0
0.221941 -0.00370877 0.0
0.20352 -0.0029628 0.0
0.235347 -0.00450775 0.0
0.202812 -0.00308601 0.0
0.179944 -0.00222815 0.0
0.241396 -0.00744145 0.0
0.231222 -0.00743415 0.0
0 0 0.0
9.44051e-05 -3.86494e-05 0.0
0 0 0.0
-0.000342917 0.00195323 0.0
0.216146 -0.00710136 0.0
0.195864 -0.00619212 0.0
0.0554609 -0.000654044 0.0
0.139511 -0.00376666 0.0
0.101813 -0.00216857 0.0
0.17079 -0.00533946 0.0
0 0 0.0
0 0 0.0
0 0 0.0
-0.000253795 0.00104497 0.0
-2.00392e-05 -0.000114481 0.0
3.91244e-05 -5.80784e-05 0.0
0 0 0.0
0.0425071 -0.000175717 0.0
0.120061 -0.000928351 0.0
0.152188 -0.00150533 0.0
0.0831721 -0.000507748 0.0
0.243758 -0.00546176 0.0
0.247259 -0.00667086 0.0
0.246737 -0.00717536 0.0
0.221269 -0.00391934 0.0
0.234727 -0.00481642 0.0
0.202026 -0.00321057 0.0
0.178897 -0.00230855 0.0
0.241191 -0.00833359 0.0
0.234244 -0.00833774 0.0
0.224538 -0.00813417 0.0
0 0 0.0
0.000133004 1.31771e-06 0.0
0 0 0.0
0 0 0.0
-0.00121944 0.00444153 0.0
-0.00116683 0.0028932 0.0
0.212042 -0.00775468 0.0
0.196725 -0.00710393 0.0
0.103452 -0.00252506 0.0
0.0566995 -0.000786907 0.0
0.141189 -0.00440474 0.0
0.172112 -0.00618337 0.0
0 0 0.0
-0.000406797 0.000494084 0.0
-0.000785666 0.00147058 0.0
-0.000243657 0.000173569 0.0
-0.000196627 0.000195658 0.0
0 0 0.0
0.0422214 -0.000174517 0.0
0.119574 -0.000914688 0.0
0.151509 -0.00150812 0.0
0.0828045 -0.000500162 0.0
0.243014 -0.00597628 0.0
0.246562 -0.00735433 0.0
0.246255 -0.00797649 0.0
0.220003 -0.0042901 0.0
0.234028 -0.00512857 0.0
0.200997 -0.00338146 0.0
0.150797 -0.00153509 0.0
0.177962 -0.00239238 0.0
0.240957 -0.0091062 0.0
0.231352 -0.00908168 0.0
0.216925 -0.00885014 0.0
0 0 0.0
-0.000102598 0.000121082 0.0
0 0 0.0
0 0 0.0
0 0 0.0
0 0 0.0
-0.00210092 0.00308561 0.0
-0.000343492 0.00384591 0.0
-0.00125057 0.00578383 0.0
-0.00290312 0.00759892 0.0
-0.00243975 0.00516879 0.0
0 0 0.0
-6.71286e-05 0.00580406 0.0
0.19787 -0.00844867 0.0
0.173274 -0.00697822 0.0
0 0 0.0
0.0583369 -0.000973285 0.0
0.105549 -0.00301277 0.0
0.143412 -0.00533251 0.0
0 0 0.0
0 0 0.0
-0.00125209 0.00146706 0.0