# vtk DataFile Version 3.0
Mesh NS-CD Problem
ASCII
DATASET UNSTRUCTURED_GRID
POINTS 10839 float
-2 0.3 0.0
-2 0.4 0.0
-2 0.35 0.0
-2 0.45 0.0
-2 0.5 0.0
-2 0.55 0.0
-2 0 0.0
-2 0.05 0.0
-2 0.85 0.0
-2 0.9 0.0
-2 0.1 0.0
-2 0.15 0.0
-2 0.25 0.0
-2 0.2 0.0
-1.96653 0.266667 0.0
-1.96524 0.415385 0.0
-1.96485 0.315 0.0
-1.96348 0.363636 0.0
-1.96414 0.464286 0.0
-2 0.6 0.0
-1.96538 0.584615 0.0
-1.96538 0.538462 0.0
-1.94979 0 0.0
-1.96653 0.0666666 0.0
-1.93306 0.0333333 0.0
-2 0.8 0.0
-2 0.75 0.0
-2 0.7 0.0
-2 0.65 0.0
-1.96249 0.7375 0.0
-1.96666 0.833333 0.0
-2 1 0.0
-2 0.95 0.0
-1.96249 0.8875 0.0
-1.96666 0.933333 0.0
-1.96234 0.1125 0.0
-1.96653 0.166667 0.0
-1.93724 0.225 0.0
-1.92971 0.28 0.0
-1.93048 0.380769 0.0
-1.93048 0.423077 0.0
-1.89958 0.3375 0.0
-1.9292 0.484203 0.0
-1.92117 0.530907 0.0
-1.96363 0.636364 0.0
-1.93076 0.576923 0.0
-1.89958 0 0.0
-1.88703 0.0375 0.0
-1.90963 0.08 0.0
-1.86611 0.0666666 0.0
-1.93749 0.775 0.0
-1.93635 0.672727 0.0
-1.92999 0.72 0.0
-1.93332 0.866667 0.0
-1.92856 0.821429 0.0
-1.94999 1 0.0
-1.92499 0.9625 0.0
-1.92499 0.925 0.0
-1.89998 0.9 0.0
-1.89958 0.125 0.0
-1.92827 0.178571 0.0
-1.89958 0.233333 0.0
-1.89045 0.290909 0.0
-1.86096 0.311538 0.0
-1.89241 0.392857 0.0
-1.89334 0.448489 0.0
-1.85655 0.357143 0.0
-1.89614 0.653846 0.0
-1.89427 0.504121 0.0
-1.8952 0.559753 0.0
-1.89614 0.615385 0.0
-1.84937 0 0.0
-1.83264 0.0333333 0.0
-1.85655 0.107143 0.0
-1.81172 0.075 0.0
-1.89998 0.766667 0.0
-1.89089 0.709091 0.0
-1.87498 0.85 0.0
-1.85998 0.79 0.0
-1.88748 0.8125 0.0
-1.89998 1 0.0
-1.88748 0.9625 0.0
-1.86664 0.933333 0.0
-1.85712 0.892857 0.0
-1.87448 0.15 0.0
-1.86611 0.194444 0.0
-1.83264 0.133333 0.0
-1.83264 0.2625 0.0
-1.82068 0.321429 0.0
-1.85664 0.404762 0.0
-1.85674 0.452381 0.0
-1.85683 0.5 0.0
-1.81184 0.375 0.0
-1.85712 0.642857 0.0
-1.85693 0.547619 0.0
-1.85702 0.595238 0.0
-1.79917 0 0.0
-1.78482 0.0357143 0.0
-1.79917 0.116667 0.0
-1.76569 0.0666666 0.0
-1.85452 0.745455 0.0
-1.82689 0.692308 0.0
-1.81815 0.781818 0.0
-1.82497 0.825 0.0
-1.84997 1 0.0
-1.8333 0.958333 0.0
-1.81247 0.8875 0.0
-1.81247 0.925 0.0
-1.81742 0.218182 0.0
-1.82427 0.175 0.0
-1.77634 0.145455 0.0
-1.79144 0.242308 0.0
-1.78482 0.285714 0.0
-1.77469 0.332653 0.0
-1.81215 0.529762 0.0
-1.81194 0.422619 0.0
-1.81203 0.470238 0.0
-1.76714 0.392857 0.0
-1.81234 0.625 0.0
-1.79732 0.571429 0.0
-1.74896 0 0.0
-1.73222 0.0333333 0.0
-1.75398 0.105 0.0
-1.71883 0.07 0.0
-1.79227 0.730769 0.0
-1.78007 0.679121 0.0
-1.75765 0.769231 0.0
-1.78178 0.818182 0.0
-1.78996 0.86 0.0
-1.79996 1 0.0
-1.78568 0.964286 0.0
-1.76663 0.922222 0.0
-1.76569 0.1875 0.0
-1.73222 0.15 0.0
-1.74896 0.25 0.0
-1.73714 0.304762 0.0
-1.76743 0.537202 0.0
-1.72869 0.343878 0.0
-1.76732 0.485119 0.0
-1.76723 0.440476 0.0
-1.72243 0.410714 0.0
-1.76757 0.607143 0.0
-1.69875 0 0.0
-1.68369 0.035 0.0
-1.69875 0.1125 0.0
-1.66528 0.075 0.0
-1.74341 0.708974 0.0
-1.73324 0.665934 0.0
-1.70441 0.74478 0.0
-1.71423 0.785714 0.0
-1.72303 0.826923 0.0
-1.74541 0.854545 0.0
-1.74541 0.890909 0.0
-1.74996 1 0.0
-1.73745 0.9625 0.0
-1.71359 0.927273 0.0
-1.68716 0.153846 0.0
-1.7131 0.214286 0.0
-1.70725 0.275 0.0
-1.69712 0.321939 0.0
-1.72279 0.589286 0.0
-1.72261 0.5 0.0
-1.7227 0.544643 0.0
-1.6827 0.355102 0.0
-1.67773 0.428571 0.0
-1.70763 0.464286 0.0
-1.70369 0.62449 0.0
-1.64854 0 0.0
-1.63181 0.0375 0.0
-1.64137 0.142857 0.0
-1.61764 0.0769231 0.0
-1.69458 0.703846 0.0
-1.67471 0.657437 0.0
-1.66143 0.727637 0.0
-1.67125 0.768571 0.0
-1.67851 0.821429 0.0
-1.68841 0.861538 0.0
-1.70904 0.890909 0.0
-1.69995 1 0.0
-1.68176 0.963636 0.0
-1.67267 0.927273 0.0
-1.65427 0.187143 0.0
-1.66718 0.231429 0.0
-1.66554 0.3 0.0
-1.67802 0.571429 0.0
-1.67792 0.523809 0.0
-1.6367 0.366327 0.0
-1.63682 0.423469 0.0
-1.62568 0.502976 0.0
-1.6629 0.470238 0.0
-1.65254 0.618367 0.0
-1.6059 0.307143 0.0
-1.59833 0 0.0
-1.58288 0.0384615 0.0
-1.60563 0.169643 0.0
-1.58179 0.112271 0.0
-1.56964 0.0714286 0.0
-1.64574 0.690385 0.0
-1.62827 0.751429 0.0
-1.63371 0.791071 0.0
-1.64279 0.857143 0.0
-1.65378 0.896154 0.0
-1.64994 1 0.0
-1.6363 0.963636 0.0
-1.61916 0.930769 0.0
-1.61345 0.209107 0.0
-1.62126 0.248571 0.0
-1.56989 0.196429 0.0
-1.63324 0.553571 0.0
-1.58846 0.535714 0.0
-1.59408 0.361905 0.0
-1.59161 0.402211 0.0
-1.58832 0.464286 0.0
-1.61504 0.598581 0.0
-1.59683 0.64359 0.0
-1.57899 0.274107 0.0
-1.56176 0.322381 0.0
-1.54812 0 0.0
-1.53378 0.0357143 0.0
-1.54593 0.147619 0.0
-1.53385 0.0732143 0.0
-1.53393 0.110714 0.0
-1.58522 0.704286 0.0
-1.58709 0.745 0.0
-1.58896 0.785714 0.0
-1.60695 0.830357 0.0
-1.60707 0.892857 0.0
-1.59993 1 0.0
-1.58454 0.965385 0.0
-1.57135 0.928571 0.0
-1.55209 0.241071 0.0
-1.5291 0.198214 0.0
-1.56936 0.570918 0.0
-1.54369 0.517857 0.0
-1.5464 0.380952 0.0
-1.54564 0.427721 0.0
-1.54488 0.47449 0.0
-1.55026 0.606122 0.0
-1.54222 0.677143 0.0
-1.52943 0.282857 0.0
-1.52143 0.33619 0.0
-1.49792 0 0.0
-1.49802 0.05 0.0
-1.49822 0.15 0.0
-1.49312 0.1 0.0
-1.5423 0.717143 0.0
-1.54419 0.767857 0.0
-1.54727 0.819048 0.0
-1.57122 0.861905 0.0
-1.53553 0.914286 0.0
-1.54992 1 0.0
-1.53563 0.964286 0.0
-1.49842 0.25 0.0
-1.48831 0.2 0.0
-1.5214 0.558929 0.0
-1.49891 0.5 0.0
-1.49871 0.4 0.0
-1.47631 0.45 0.0
-1.49911 0.6 0.0
-1.49921 0.65 0.0
-1.49931 0.7 0.0
-1.48111 0.35 0.0
-1.48351 0.3 0.0
-1.44771 0 0.0
-1.44782 0.05 0.0
-1.44804 0.15 0.0
-1.44793 0.1 0.0
-1.49941 0.75 0.0
-1.49951 0.8 0.0
-1.49981 0.95 0.0
-1.49961 0.85 0.0
-1.49971 0.9 0.0
-1.49991 1 0.0
-1.44826 0.25 0.0
-1.43815 0.2 0.0
-1.47151 0.55 0.0
-1.44881 0.5 0.0
-1.44859 0.4 0.0
-1.42619 0.45 0.0
-1.44913 0.65 0.0
-1.44902 0.6 0.0
-1.44935 0.75 0.0
-1.44924 0.7 0.0
-1.43972 0.35 0.0
-1.43336 0.3 0.0
-1.3975 0 0.0
-1.39762 0.05 0.0
-1.39786 0.15 0.0
-1.39274 0.1 0.0
-1.44957 0.85 0.0
-1.44946 0.8 0.0
-1.4523 0.95 0.0
-1.44968 0.9 0.0
-1.4499 1 0.0
-1.3981 0.25 0.0
-1.38798 0.2 0.0
-1.42141 0.55 0.0
-1.3987 0.5 0.0
-1.39834 0.35 0.0
-1.37845 0.4 0.0
-1.37607 0.45 0.0
-1.40784 0.65 0.0
-1.39894 0.6 0.0
-1.41185 0.75 0.0
-1.39918 0.7 0.0
-1.38322 0.3 0.0
-1.34729 0 0.0
-1.34492 0.05 0.0
-1.34018 0.15 0.0
-1.34255 0.1 0.0
-1.40707 0.85 0.0
-1.39941 0.8 0.0
-1.39977 0.95 0.0
-1.39965 0.9 0.0
-1.39989 1 0.0
-1.33781 0.2 0.0
-1.33544 0.25 0.0
-1.37131 0.55 0.0
-1.34859 0.5 0.0
-1.33833 0.4 0.0
-1.3307 0.35 0.0
-1.32595 0.45 0.0
-1.34885 0.6 0.0
-1.36655 0.65 0.0
-1.36179 0.75 0.0
-1.34911 0.7 0.0
-1.33307 0.3 0.0
-1.29708 0 0.0
-1.29722 0.05 0.0
-1.2975 0.15 0.0
-1.29236 0.1 0.0
-1.35703 0.85 0.0
-1.34937 0.8 0.0
-1.34988 1 0.0
-1.34962 0.9 0.0
-1.35226 0.95 0.0
-1.28528 0.25 0.0
-1.28764 0.2 0.0
-1.28931 0.35 0.0
-1.32121 0.55 0.0
-1.29848 0.5 0.0
-1.28709 0.45 0.0
-1.2982 0.4 0.0
-1.29876 0.6 0.0
-1.31647 0.65 0.0
-1.29918 0.75 0.0
-1.29904 0.7 0.0
-1.28292 0.3 0.0
-1.24687 0 0.0
-1.24702 0.05 0.0
-1.24717 0.1 0.0
-1.24732 0.15 0.0
-1.29946 0.85 0.0
-1.29932 0.8 0.0
-1.29987 1 0.0
-1.29974 0.95 0.0
-1.30462 0.9 0.0
-1.24762 0.25 0.0
-1.23747 0.2 0.0
-1.24792 0.35 0.0
-1.22807 0.4 0.0
-1.27111 0.55 0.0
-1.24837 0.5 0.0
-1.24822 0.45 0.0
-1.24867 0.6 0.0
-1.26639 0.65 0.0
-1.26167 0.75 0.0
-1.24897 0.7 0.0
-1.23277 0.3 0.0
-1.19667 0 0.0
-1.19683 0.05 0.0
-1.18964 0.15 0.0
-1.19198 0.1 0.0
-1.25695 0.85 0.0
-1.24927 0.8 0.0
-1.25223 0.95 0.0
-1.24987 1 0.0
-1.24957 0.9 0.0
-1.1873 0.2 0.0
-1.18496 0.25 0.0
-1.18028 0.35 0.0
-1.17794 0.4 0.0
-1.1981 0.45 0.0
-1.19842 0.55 0.0
-1.19826 0.5 0.0
-1.19858 0.6 0.0
-1.19874 0.65 0.0
-1.19906 0.75 0.0
-1.1989 0.7 0.0
-1.18262 0.3 0.0
-1.14646 0 0.0
-1.14663 0.05 0.0
-1.1418 0.1 0.0
-1.13713 0.2 0.0
-1.14697 0.15 0.0
-1.20691 0.85 0.0
-1.20926 0.8 0.0
-1.20221 0.95 0.0
-1.19986 1 0.0
-1.20456 0.9 0.0
-1.13997 0.3 0.0
-1.14731 0.25 0.0
-1.13781 0.4 0.0
-1.13014 0.35 0.0
-1.12548 0.45 0.0
-1.14815 0.5 0.0
-1.15962 0.55 0.0
-1.14849 0.6 0.0
-1.15745 0.65 0.0
-1.16155 0.75 0.0
-1.14917 0.8 0.0
-1.14883 0.7 0.0
-1.09625 0 0.0
-1.09661 0.1 0.0
-1.09393 0.05 0.0
-1.09697 0.2 0.0
-1.08929 0.15 0.0
-1.15687 0.85 0.0
-1.14985 1 0.0
-1.15219 0.95 0.0
-1.14951 0.9 0.0
-1.09733 0.3 0.0
-1.08465 0.25 0.0
-1.09769 0.4 0.0
-1.08 0.35 0.0
-1.08661 0.45 0.0
-1.09804 0.5 0.0
-1.12082 0.55 0.0
-1.10916 0.8 0.0
-1.10629 0.7 0.0
-1.0984 0.6 0.0
-1.11616 0.65 0.0
-1.11149 0.75 0.0
-1.04604 0 0.0
-1.04623 0.05 0.0
-1.04642 0.1 0.0
-1.0468 0.2 0.0
-1.03911 0.15 0.0
-1.09948 0.9 0.0
-1.0993 0.85 0.0
-1.09984 1 0.0
-1.09966 0.95 0.0
-1.04718 0.3 0.0
-1.03449 0.25 0.0
-1.04756 0.4 0.0
-1.02986 0.35 0.0
-1.04775 0.45 0.0
-1.04794 0.5 0.0
-1.04813 0.55 0.0
-1.05911 0.8 0.0
-1.04831 0.6 0.0
-1.06376 0.7 0.0
-1.0485 0.65 0.0
-1.04888 0.75 0.0
-0.995833 0 0.0
-0.991231 0.1 0.0
-0.996033 0.05 0.0
-0.986629 0.2 0.0
-0.98893 0.15 0.0
-1.05447 0.9 0.0
-1.04926 0.85 0.0
-1.04983 1 0.0
-1.04964 0.95 0.0
-0.984328 0.25 0.0
-0.99703 0.3 0.0
-0.997429 0.4 0.0
-0.997628 0.45 0.0
-0.979726 0.35 0.0
-0.997827 0.5 0.0
-0.998027 0.55 0.0
-0.998226 0.6 0.0
-0.961416 0.475 0.0
-1.00907 0.8 0.0
-0.998426 0.65 0.0
-0.998625 0.7 0.0
-1.01138 0.75 0.0
-0.945625 0 0.0
-0.946044 0.1 0.0
-0.943334 0.05 0.0
-0.946463 0.2 0.0
-0.938752 0.15 0.0
-1.00444 0.9 0.0
-1.00675 0.85 0.0
-0.999821 1 0.0
-1.00213 0.95 0.0
-0.93417 0.25 0.0
-0.946881 0.3 0.0
-0.9473 0.4 0.0
-0.929588 0.35 0.0
-0.925005 0.45 0.0
-0.960371 0.525 0.0
-0.959325 0.575 0.0
-0.958279 0.625 0.0
-0.922714 0.5 0.0
-0.959017 0.8 0.0
-0.957233 0.675 0.0
-0.952999 0.7125 0.0
-0.948766 0.75 0.0
-0.895417 0 0.0
-0.895855 0.1 0.0
-0.893136 0.05 0.0
-0.896294 0.2 0.0
-0.888573 0.15 0.0
-0.949184 0.85 0.0
-0.954415 0.9 0.0
-0.949812 1 0.0
-0.949603 0.95 0.0
-0.884011 0.25 0.0
-0.896733 0.3 0.0
-0.874887 0.45 0.0
-0.879449 0.35 0.0
-0.897171 0.4 0.0
-0.920423 0.55 0.0
-0.918132 0.6 0.0
-0.915841 0.65 0.0
-0.872606 0.5 0.0
-0.908968 0.8 0.0
-0.91355 0.7 0.0
-0.898707 0.75 0.0
-0.845208 0 0.0
-0.845438 0.05 0.0
-0.845667 0.1 0.0
-0.845896 0.15 0.0
-0.833853 0.25 0.0
-0.846126 0.2 0.0
-0.899146 0.85 0.0
-0.904386 0.9 0.0
-0.899584 0.95 0.0
-0.899804 1 0.0
-0.838062 0.35 0.0
[...]
POINT_DATA 10839
VECTORS Velocity float
0.21 0 0.0
0.24 0 0.0
0.2275 0 0.0
0.2475 0 0.0
0.25 0 0.0
0.2475 0 0.0
0 0 0.0
0.0475 0 0.0
0.1275 0 0.0
0.09 0 0.0
0.09 0 0.0
0.1275 0 0.0
0.1875 0 0.0
0.16 0 0.0
0.195557 -2.35675e-05 0.0
0.242841 -3.19962e-05 0.0
0.215776 -2.79917e-05 0.0
0.231406 -3.15066e-05 0.0
0.248725 -3.40383e-05 0.0
0.24 0 0.0
0.24284 -3.18983e-05 0.0
0.24852 -3.2774e-05 0.0
0 0 0.0
0.0622239 -4.19789e-06 0.0
0.032227 -2.77534e-06 0.0
0.16 0 0.0
0.1875 0 0.0
0.21 0 0.0
0.2275 0 0.0
0.193592 -2.64127e-05 0.0
0.138887 -1.47799e-05 0.0
0 0 0.0
0.0475 0 0.0
0.0998415 -1.03328e-05 0.0
0.0622206 -4.24791e-06 0.0
0.0998462 -1.07927e-05 0.0
0.138891 -1.4917e-05 0.0
0.17438 -3.71314e-05 0.0
0.201605 -5.07015e-05 0.0
0.235787 -6.17182e-05 0.0
0.244085 -6.45257e-05 0.0
0.223601 -8.2635e-05 0.0
0.249751 -6.73596e-05 0.0
0.249044 -7.4994e-05 0.0
0.231404 -3.19735e-05 0.0
0.244081 -6.3712e-05 0.0
0 0 0.0
0.036108 -5.32345e-06 0.0
0.0736125 -1.48208e-05 0.0
0.0622487 -1.61915e-05 0.0
0.17437 -3.65464e-05 0.0
0.220162 -5.05592e-05 0.0
0.201595 -5.06945e-05 0.0
0.115549 -2.20767e-05 0.0
0.146676 -3.4029e-05 0.0
0 0 0.0
0.0360874 -3.61127e-06 0.0
0.0693662 -1.16358e-05 0.0
0.0899838 -2.29263e-05 0.0
0.109391 -3.09186e-05 0.0
0.146691 -3.33985e-05 0.0
0.178902 -6.20351e-05 0.0
0.206293 -8.08822e-05 0.0
0.2145 -0.000108693 0.0
0.238526 -9.64584e-05 0.0
0.24735 -0.000100358 0.0
0.229606 -0.000122557 0.0
0.226324 -8.66394e-05 0.0
0.249983 -0.000100803 0.0
0.246426 -9.8062e-05 0.0
0.23668 -9.23672e-05 0.0
0 0 0.0
0.0322503 -5.99207e-06 0.0
0.0956958 -3.50117e-05 0.0
0.0694281 -2.63561e-05 0.0
0.178876 -6.09941e-05 0.0
0.206269 -8.13325e-05 0.0
0.127477 -4.71595e-05 0.0
0.165874 -7.69893e-05 0.0
0.152326 -5.53606e-05 0.0
0 0 0.0
0.0360796 -5.16354e-06 0.0
0.0621962 -1.60413e-05 0.0
0.0956307 -3.56892e-05 0.0
0.127524 -4.76519e-05 0.0
0.15666 -6.90097e-05 0.0
0.115599 -5.45611e-05 0.0
0.193625 -0.000113225 0.0
0.21814 -0.000142959 0.0
0.240939 -0.000130462 0.0
0.247737 -0.000135201 0.0
0.25 -0.000136605 0.0
0.234397 -0.000165216 0.0
0.229577 -0.000120624 0.0
0.247728 -0.000134796 0.0
0.24092 -0.000130036 0.0
0 0 0.0
0.0344865 -8.26194e-06 0.0
0.103119 -5.3505e-05 0.0
0.0623012 -2.66523e-05 0.0
0.189728 -9.61927e-05 0.0
0.21299 -0.000133831 0.0
0.170536 -0.000103984 0.0
0.144331 -7.73773e-05 0.0
0 0 0.0
0.0398984 -8.83669e-06 0.0
0.0997879 -4.87211e-05 0.0
0.0693224 -2.59638e-05 0.0
0.170623 -0.00010436 0.0
0.14442 -7.92103e-05 0.0
0.124375 -8.01284e-05 0.0
0.183648 -0.000131593 0.0
0.204129 -0.000157312 0.0
0.222036 -0.000184926 0.0
0.249109 -0.000178743 0.0
0.244026 -0.000174217 0.0
0.249119 -0.000178865 0.0
0.238549 -0.000209695 0.0
0.234354 -0.000163853 0.0
0.244883 -0.000188168 0.0
0 0 0.0
0.0322907 -8.7298e-06 0.0
0.0940712 -5.61307e-05 0.0
0.0652142 -3.36106e-05 0.0
0.196698 -0.000143308 0.0
0.217873 -0.000175707 0.0
0.177441 -0.000145196 0.0
0.148693 -0.000101768 0.0
0.120331 -7.15112e-05 0.0
0 0 0.0
0.0343914 -8.37619e-06 0.0
0.0716464 -3.38231e-05 0.0
0.152421 -0.000114281 0.0
0.127611 -9.92065e-05 0.0
0.187575 -0.000162724 0.0
0.211948 -0.000202343 0.0
0.248606 -0.000221175 0.0
0.225683 -0.00022897 0.0
0.249782 -0.000222938 0.0
0.246473 -0.000219349 0.0
0.242062 -0.000256184 0.0
0.238491 -0.000208535 0.0
0 0 0.0
0.0338722 -1.09159e-05 0.0
0.099988 -7.46895e-05 0.0
0.0695398 -4.46516e-05 0.0
0.206263 -0.000188667 0.0
0.222407 -0.000219639 0.0
0.18998 -0.000195568 0.0
0.168259 -0.000158315 0.0
0.143008 -0.000121803 0.0
0.124198 -9.02433e-05 0.0
0.0970875 -6.08492e-05 0.0
0 0 0.0
0.0360221 -1.06313e-05 0.0
0.0673184 -3.61721e-05 0.0
0.130329 -0.000119589 0.0
0.168478 -0.000159832 0.0
0.199469 -0.000208225 0.0
0.218375 -0.000244035 0.0
0.241993 -0.000256006 0.0
0.25 -0.000267567 0.0
0.247989 -0.000264252 0.0
0.229078 -0.000274992 0.0
0.244935 -0.000304247 0.0
0.248739 -0.000280733 0.0
0.234448 -0.000261852 0.0
0 0 0.0
0.0362292 -1.40507e-05 0.0
0.122651 -0.000122298 0.0
0.0712218 -5.27259e-05 0.0
0.208354 -0.00022982 0.0
0.22513 -0.000272983 0.0
0.198054 -0.000238051 0.0
0.177732 -0.000197532 0.0
0.146533 -0.000146159 0.0
0.119138 -0.000102552 0.0
0.0970561 -6.88636e-05 0.0
0 0 0.0
0.0349407 -1.18831e-05 0.0
0.0672826 -4.06418e-05 0.0
0.152294 -0.000166735 0.0
0.178011 -0.000203559 0.0
0.210111 -0.00025718 0.0
0.244859 -0.000303113 0.0
0.24942 -0.000311707 0.0
0.232221 -0.000322799 0.0
0.244194 -0.0003456 0.0
0.249987 -0.000367644 0.0
0.249131 -0.000327714 0.0
0.235916 -0.000312407 0.0
0.212956 -0.000313472 0.0
0 0 0.0
0.0371567 -1.65315e-05 0.0
0.141101 -0.000169917 0.0
0.0999464 -0.000102972 0.0
0.0665904 -5.13416e-05 0.0
0.213635 -0.000278481 0.0
0.186616 -0.000242389 0.0
0.165094 -0.000197659 0.0
0.12225 -0.000122564 0.0
0.0928734 -7.53541e-05 0.0
0 0 0.0
0.0349119 -1.32441e-05 0.0
0.0642334 -4.31115e-05 0.0
0.165589 -0.000212798 0.0
0.18696 -0.000250015 0.0
0.158112 -0.00022243 0.0
0.247092 -0.000353323 0.0
0.248691 -0.000405241 0.0
0.231045 -0.000362192 0.0
0.24052 -0.000385966 0.0
0.248754 -0.000406091 0.0
0.240206 -0.000358545 0.0
0.229262 -0.000351437 0.0
0.199173 -0.00030694 0.0
0.218625 -0.000366426 0.0
0 0 0.0
0.0346434 -1.61885e-05 0.0
0.126156 -0.00016491 0.0
0.0681667 -5.78613e-05 0.0
0.0988053 -0.000111879 0.0
0.208092 -0.000316911 0.0
0.18977 -0.000276678 0.0
0.168138 -0.000230146 0.0
0.140631 -0.000167546 0.0
0.0954192 -8.94152e-05 0.0
0 0 0.0
0.0332568 -1.354e-05 0.0
0.0660653 -5.1289e-05 0.0
0.183212 -0.000289977 0.0
0.159249 -0.000248761 0.0
0.2449 -0.000416662 0.0
0.249658 -0.000457816 0.0
0.235953 -0.00042322 0.0
0.244852 -0.000446306 0.0
0.249374 -0.000458 0.0
0.238625 -0.000420712 0.0
0.21843 -0.000379509 0.0
0.203093 -0.000357993 0.0
0.22336 -0.000418865 0.0
0 0 0.0
0.0477961 -3.20631e-05 0.0
0.127903 -0.000187597 0.0
0.090407 -0.000104793 0.0
0.202621 -0.000339467 0.0
0.177982 -0.000279903 0.0
0.147904 -0.00021115 0.0
0.118734 -0.000139345 0.0
0.0780404 -7.54215e-05 0.0
0 0 0.0
0.0342364 -1.59704e-05 0.0
0.187818 -0.000343424 0.0
0.160385 -0.000276698 0.0
0.246452 -0.000474814 0.0
0.249995 -0.000513002 0.0
0.24013 -0.000488096 0.0
0.247568 -0.000535989 0.0
0.239864 -0.000480741 0.0
0.227302 -0.000444288 0.0
0.209744 -0.000395258 0.0
0.227711 -0.000475555 0.0
0.210276 -0.000420614 0.0
0 0 0.0
0.0478564 -3.54025e-05 0.0
0.127994 -0.000208681 0.0
0.0904851 -0.000114443 0.0
0.187189 -0.000335364 0.0
0.159639 -0.000264253 0.0
0.047207 -3.19011e-05 0.0
0.127105 -0.000184359 0.0
0.089607 -0.000103432 0.0
0 0 0.0
0.187891 -0.00038651 0.0
0.160472 -0.000309696 0.0
0.247419 -0.000537187 0.0
0.249992 -0.000577005 0.0
0.240159 -0.000550861 0.0
0.247581 -0.000602755 0.0
0.227257 -0.000497522 0.0
0.239832 -0.000538882 0.0
0.187119 -0.000375032 0.0
0.209686 -0.000442285 0.0
0.227749 -0.000522971 0.0
0.210338 -0.000474195 0.0
0 0 0.0
0.0479218 -3.7952e-05 0.0
0.128097 -0.000230881 0.0
0.0905906 -0.000126476 0.0
0.127017 -0.000207152 0.0
0.15956 -0.000295913 0.0
0.0471493 -3.58401e-05 0.0
0.0895221 -0.000115816 0.0
0 0 0.0
0.187975 -0.000433109 0.0
0.160571 -0.000345558 0.0
0.2474 -0.000600864 0.0
0.249988 -0.000645526 0.0
0.22779 -0.000575532 0.0
0.240203 -0.000646836 0.0
0.247595 -0.000675571 0.0
0.227214 -0.000541832 0.0
0.239795 -0.000600479 0.0
0.187061 -0.000405127 0.0
0.20962 -0.000491532 0.0
0.210408 -0.000532837 0.0
0 0 0.0
0.0479973 -4.07818e-05 0.0
0.128231 -0.000257874 0.0
0.090698 -0.000136991 0.0
0.126936 -0.000227161 0.0
0.159471 -0.000329074 0.0
0.0470782 -4.07856e-05 0.0
0.0894277 -0.000129704 0.0
0 0 0.0
0.160684 -0.000384337 0.0
0.188095 -0.000497575 0.0
0.247376 -0.000668699 0.0
0.249981 -0.000719313 0.0
0.240232 -0.000709546 0.0
0.227867 -0.00067164 0.0
0.247608 -0.000753793 0.0
0.239753 -0.000664844 0.0
0.227169 -0.000589349 0.0
0.186978 -0.000447812 0.0
0.209548 -0.000542275 0.0
0.210488 -0.000598909 0.0
0 0 0.0
0.048071 -4.33074e-05 0.0
0.128345 -0.000280093 0.0
0.0908163 -0.000147876 0.0
0.126832 -0.000253286 0.0
0.159374 -0.000364734 0.0
0 0 0.0
0.089322 -0.000146568 0.0
0.0470046 -4.62241e-05 0.0
0.188208 -0.00056007 0.0
0.160813 -0.000428725 0.0
0.22792 -0.000739113 0.0
0.247348 -0.00074159 0.0
0.249971 -0.000799595 0.0
0.247617 -0.000820934 0.0
0.240262 -0.000776709 0.0
0.239704 -0.000732862 0.0
0.227106 -0.000648954 0.0
0.186864 -0.000502885 0.0
0.209468 -0.000595301 0.0
0.210577 -0.000672719 0.0
0 0 0.0
0.0481517 -4.57089e-05 0.0
0.0909344 -0.000158304 0.0
0.128494 -0.000309023 0.0
0.1267 -0.000286475 0.0
0.159269 -0.000402258 0.0
0 0 0.0
0.0469139 -5.30786e-05 0.0
0.0892183 -0.000163111 0.0
0.188304 -0.000611738 0.0
0.160962 -0.000480693 0.0
0.227974 -0.000814529 0.0
0.240314 -0.000910972 0.0
0.247314 -0.000819648 0.0
0.249956 -0.00088626 0.0
0.247625 -0.000892932 0.0
0.239646 -0.000803956 0.0
0.227035 -0.000710459 0.0
0.186789 -0.00053697 0.0
0.20938 -0.000647811 0.0
0.210678 -0.000758997 0.0
0 0 0.0
0.0482394 -4.85261e-05 0.0
0.128694 -0.00035162 0.0
0.0910956 -0.000175789 0.0
0.126595 -0.00031295 0.0
0.159157 -0.000440528 0.0
0.0468199 -6.00689e-05 0.0
0 0 0.0
0.0890786 -0.000185717 0.0
0.161133 -0.000543742 0.0
0.188482 -0.000713762 0.0
0.228076 -0.000958012 0.0
0.240353 -0.00102525 0.0
0.24763 -0.00099728 0.0
0.247249 -0.000939693 0.0
0.249933 -0.000983193 0.0
0.239578 -0.000879065 0.0
0.226925 -0.000792833 0.0
0.186657 -0.000590736 0.0
0.209283 -0.000699659 0.0
0.21079 -0.00086068 0.0
0 0 0.0
0.0483337 -5.27148e-05 0.0
0.0912632 -0.000195844 0.0
0.16133 -0.000620125 0.0
0.128865 -0.000391575 0.0
0.126465 -0.000343839 0.0
0.159062 -0.000470079 0.0
0.0467075 -6.87007e-05 0.0
0 0 0.0
0.0889511 -0.000205667 0.0
0.210894 -0.00096186 0.0
0.188607 -0.000791342 0.0
0.240381 -0.00112736 0.0
0.228153 -0.00109161 0.0
0.247627 -0.00116726 0.0
0.249899 -0.00108761 0.0
0.247202 -0.00100955 0.0
0.239496 -0.000954225 0.0
0.226845 -0.000842675 0.0
0.18657 -0.000619992 0.0
0.158916 -0.000509403 0.0
0.209176 -0.000746446 0.0
0 0 0.0
0.0914394 -0.000224356 0.0
0.0484491 -5.94611e-05 0.0
0.16151 -0.000700677 0.0
0.129131 -0.000467811 0.0
0.126328 -0.000371536 0.0
0 0 0.0
0.0465819 -7.72374e-05 0.0
0.0887854 -0.000228076 0.0
0.211009 -0.00107887 0.0
0.188837 -0.000951474 0.0
0.240406 -0.00124043 0.0
0.228235 -0.00124725 0.0
0.24761 -0.00127691 0.0
0.249848 -0.00120401 0.0
0.247146 -0.00108477 0.0
0.158813 -0.000526029 0.0
0.209075 -0.000780485 0.0
0.239395 -0.00102934 0.0
0.226754 -0.000890749 0.0
0.186449 -0.000651419 0.0
0 0 0.0
0.0485706 -6.90491e-05 0.0
0.0916647 -0.000269174 0.0
0.161764 -0.000824684 0.0
0.129405 -0.000559553 0.0
0.0886268 -0.000242107 0.0
0.126165 -0.000393103 0.0
0 0 0.0
0.046439 -8.43487e-05 0.0
0.21115 -0.00124727 0.0
0.189049 -0.00111501 0.0
0.240428 -0.00140519 0.0
0.228314 -0.00143168 0.0
0.247588 -0.00139687 0.0
0.24978 -0.00133288 0.0
0.247008 -0.00122758 0.0
0.158684 -0.000534207 0.0
0.239273 -0.0011051 0.0
0.208964 -0.000805853 0.0
0.226581 -0.000959522 0.0
0.186285 -0.000671807 0.0
0 0 0.0
0.0919727 -0.000339898 0.0
0.0487259 -8.87225e-05 0.0
0.162114 -0.00102352 0.0
0.129728 -0.00068406 0.0
0.0884836 -0.000245735 0.0
0.126022 -0.000398503 0.0
0 0 0.0
0.0462926 -9.11791e-05 0.0
0.189281 -0.00131996 0.0
0.211303 -0.00145344 0.0
0.240437 -0.00160096 0.0
0.247538 -0.00156584 0.0
0.228386 -0.00164989 0.0
0.249682 -0.00147278 0.0
0.246874 -0.00133835 0.0
0.239119 -0.00117847 0.0
0.249152 -0.00165278 0.0
0.158546 -0.000520252 0.0
0.226417 -0.00100055 0.0
0.208763 -0.000825633 0.0
0.186174 -0.000667225 0.0
0 0 0.0
0.0922844 -0.000421127 0.0
0.0489346 -0.000112963 0.0
0.162381 -0.00119523 0.0
0.130109 -0.000846731 0.0
0.0883307 -0.000238617 0.0
0.1259 -0.000385437 0.0
0 0 0.0
0.0461545 -9.24514e-05 0.0
0.189535 -0.00157158 0.0
0.211458 -0.00170352 0.0
0.240417 -0.00182143 0.0
0.228448 -0.00191219 0.0
0.247405 -0.00185985 0.0
0.248783 -0.00151232 0.0
0.243475 -0.00133213 0.0
0.233233 -0.00112947 0.0
0.249464 -0.00171591 0.0
0.158407 -0.000476414 0.0
0.218052 -0.000921223 0.0
0.203409 -0.000769347 0.0
0.185973 -0.000627198 0.0
0 0 0.0
0.0927078 -0.000538373 0.0
0.0491883 -0.000144943 0.0
0.162753 -0.00145746 0.0
0.130562 -0.00105455 0.0
0.125753 -0.000335659 0.0
0.0881955 -0.000214553 0.0
0 0 0.0
0.046013 -8.63443e-05 0.0
0.189808 -0.00187958 0.0
0.211615 -0.00200341 0.0
0.247262 -0.00209113 0.0
0.228489 -0.00221675 0.0
0.240379 -0.00208457 0.0
0.246588 -0.00152115 0.0
0.238788 -0.00128875 0.0
0.226067 -0.00104141 0.0
0.249253 -0.00189927 0.0
0.158257 -0.000399926 0.0
0.208421 -0.000795847 0.0
0.185778 -0.000561621 0.0
0 0 0.0
0.0495029 -0.000184957 0.0
0.0932266 -0.000683646 0.0
0.131018 -0.00126976 0.0
0.190099 -0.0022454 0.0
0.163172 -0.00177571 0.0
0.125638 -0.00025859 0.0
0.0880878 -0.000171937 0.0
0.0458909 -7.65322e-05 0.0
0 0 0.0
0.228506 -0.00250883 0.0
0.211765 -0.00236158 0.0
0.247116 -0.00229631 0.0
0.240292 -0.00238904 0.0
0.225791 -0.00104452 0.0
0.246333 -0.00164521 0.0
0.238509 -0.00135273 0.0
0.248985 -0.00210254 0.0
0.185561 -0.00045787 0.0
0.158075 -0.000254288 0.0
0.208083 -0.000726194 0.0
0 0 0.0
0.0499223 -0.00024092 0.0
0.0939485 -0.000870865 0.0
0.131648 -0.00156986 0.0
0.190326 -0.00257004 0.0
0.163751 -0.00224607 0.0
0.125555 -0.000148162 0.0
0.0880257 -9.82741e-05 0.0
0.0458078 -5.75648e-05 0.0
0 0 0.0
0.125513 -2.64861e-06 0.0
0.228498 -0.00282604 0.0
0.211946 -0.00292227 0.0
0.240098 -0.00289206 0.0
0.246933 -0.00251789 0.0
0.225316 -0.00102327 0.0
0.238167 -0.00141044 0.0
0.246011 -0.00178035 0.0
0.248637 -0.00233147 0.0
0.185305 -0.000318227 0.0
0.157911 -9.52478e-05 0.0
0.20775 -0.000643165 0.0
0 0 0.0
0.0504441 -0.00029826 0.0
0.0947595 -0.00107629 0.0
0.132387 -0.0019152 0.0
0.190648 -0.00304748 0.0
0.164303 -0.00270231 0.0
0.0457556 -3.67728e-05 0.0
0.0880245 -1.77455e-05 0.0
0 0 0.0
0.125506 0.000144255 0.0
0.228451 -0.00327781 0.0
0.212061 -0.0034242 0.0
0.239879 -0.00330497 0.0
0.246627 -0.00284536 0.0
0.224947 -0.00100444 0.0
0.237745 -0.0014675 0.0
0.248208 -0.00258505 0.0
0.245408 -0.00199655 0.0
0.185078 -0.000190941 0.0
0.157748 9.74418e-05 0.0
0.207358 -0.00053146 0.0
0 0 0.0
0.0510922 -0.000370989 0.0
0.0957387 -0.00130648 0.0
0.133405 -0.00236698 0.0
0.191074 -0.00374055 0.0
0.212159 -0.00399367 0.0
0.164932 -0.00321845 0.0
0.0457648 -7.58236e-06 0.0
0.0880993 7.88992e-05 0.0
0 0 0.0
0.125552 0.000332422 0.0
0.228315 -0.00396903 0.0
0.239659 -0.00367812 0.0
0.246244 -0.00321043 0.0
0.247817 -0.00280021 0.0
0.224527 -0.000968411 0.0
0.23722 -0.0015349 0.0
0.244863 -0.00216266 0.0
0.15759 0.000320378 0.0
0.184743 -7.72491e-08 0.0
0.206882 -0.000402239 0.0
0 0 0.0
0.0519118 -0.000455688 0.0
0.096908 -0.00156514 0.0
0.134458 -0.00280666 0.0
0.191342 -0.0042085 0.0
0.212227 -0.00461663 0.0
0.165651 -0.00378789 0.0
0.0458292 2.10179e-05 0.0
0.0882636 0.000189414 0.0
0 0 0.0
0.157461 0.000513154 0.0
0.0885241 0.00031084 0.0
0.125676 0.00056121 0.0
0.228138 -0.00457534 0.0
0.23938 -0.00407319 0.0
0.24552 -0.00381548 0.0
0.247372 -0.00302656 0.0
0.244376 -0.0023124 0.0
0.223925 -0.000922359 0.0
0.236326 -0.00163102 0.0
0.184253 0.000270664 0.0
0.206412 -0.000286326 0.0
0.22796 -0.00510174 0.0
0 0 0.0
0.0528456 -0.000539558 0.0
0.135694 -0.00328209 0.0
0.0982704 -0.00184516 0.0
0.212277 -0.00531702 0.0
0.191835 -0.00505867 0.0
0.166464 -0.00440477 0.0
0.045977 6.33242e-05 0.0
0 0 0.0
0.183907 0.000433375 0.0
0.157314 0.000757066 0.0
0.125872 0.00075339 0.0
0.0461407 9.4801e-05 0.0
0.0888748 0.000423917 0.0
0.238968 -0.00462508 0.0
0.245032 -0.00418469 0.0
0.246669 -0.00336637 0.0
0.246065 -0.00365375 0.0
0.243805 -0.00246747 0.0
0.223202 -0.00088636 0.0
0.235516 -0.00171939 0.0
0.205872 -0.000155718 0.0
0.22772 -0.00567336 0.0
0.0538743 -0.000626973 0.0
0 0 0.0
0.136874 -0.00370677 0.0
0.0998393 -0.00213274 0.0
0.2123 -0.00607321 0.0
0.192149 -0.00561373 0.0
0.167397 -0.00507071 0.0
0 0 0.0
0.183429 0.000660596 0.0
0.157153 0.00103382 0.0
0.126084 0.000918457 0.0
0.0463921 0.000121009 0.0
0.0893003 0.00052504 0.0
0.238223 -0.00550367 0.0
0.244491 -0.00457448 0.0
0.245378 -0.00395446 0.0
0.242551 -0.00280134 0.0
0.222371 -0.000848729 0.0
0.234603 -0.00182225 0.0
0.204924 2.67406e-05 0.0
0.22739 -0.00643284 0.0
0 0 0.0
0.055139 -0.000719487 0.0
0.138448 -0.00423196 0.0
0.101459 -0.00240836 0.0
0.168448 -0.00576921 0.0
0.212304 -0.00690074 0.0
0.192749 -0.00659798 0.0
0 0 0.0
0 0 0.0
0.182882 0.000858945 0.0
0.15705 0.00123722 0.0
0.12641 0.00107876 0.0
0.0898159 0.00060539 0.0
0.0466987 0.000142387 0.0
0.237569 -0.00620205 0.0
0.243667 -0.00513836 0.0
0.233754 -0.00192799 0.0
0.244352 -0.00440405 0.0
0.241487 -0.00308762 0.0
0.221402 -0.000835904 0.0
0.204065 0.000149956 0.0
0.236971 -0.00681853 0.0
0.226974 -0.0072598 0.0
0.0565949 -0.00082323 0.0
0.103473 -0.0027251 0.0
0.140231 -0.00479038 0.0
0.16941 -0.00637296 0.0
0.212304 -0.00778456 0.0
0.19314 -0.00724786 0.0
0 0 0.0
0 0 0.0
0.156972 0.00137527 0.0
0.182164 0.00107409 0.0
0.0903298 0.000660452 0.0
0.126847 0.00121492 0.0
0.0470173 0.000157561 0.0
0.242267 -0.00603176 0.0
0.243161 -0.00491145 0.0
0.203126 0.000244985 0.0
0.232819 -0.00204426 0.0
0.240579 -0.0033391 0.0
0.2199 -0.000855051 0.0
0.236308 -0.00745184 0.0
0.226337 -0.00848631 0.0
0.212285 -0.00874368 0.0
0.0582919 -0.000948927 0.0
0.105729 -0.00306982 0.0
0.142553 -0.00546418 0.0
0.170733 -0.00714862 0.0
0.193895 -0.00838621 0.0
0 0 0.0
0 0 0.0
0.156905 0.00151676 0.0
0.181543 0.00118024 0.0
0.0910235 0.000686925 0.0
0.127299 0.00127547 0.0
0.0474079 0.000167691 0.0
0.239565 -0.00361733 0.0
0.241826 -0.00546215 0.0
0.241106 -0.00675298 0.0
0.202092 0.000302876 0.0
0.231513 -0.00223476 0.0
0.218612 -0.00092644 0.0
0.180916 0.00122606 0.0
0.234967 -0.00869678 0.0
0 0 0.0
0.225751 -0.00950553 0.0
0.19459 -0.00938354 0.0
0.212261 -0.00977024 0.0
0.0600367 -0.00106 0.0
0.144515 -0.00600672 0.0
0.108509 -0.00348861 0.0
0.172541 -0.00817404 0.0
0 0 0.0
0 0 0.0
0 0 0.0
0 0 0.0
0 0 0.0
0.0477631 0.000162868 0.0
0.127811 0.00126976 0.0
0.156892 0.00154861 0.0
0.0915838 0.000672529 0.0
0.238112 -0.00400367 0.0
0.240316 -0.00608367 0.0
0.239821 -0.00753598 0.0
0.217456 -0.00100009 0.0
0.200964 0.000302728 0.0
0.229413 -0.0025699 0.0
0.199956 0.000255752 0.0
0.180425 0.00121322 0.0
0.233846 -0.00969947 0.0
0.225109 -0.0105881 0.0
0 0 0.0
7.75514e-05 -2.10369e-05 0.0
0 0 0.0
-0.000509483 0.00368627 0.0
0.212252 -0.0108916 0.0
0.195181 -0.0101698 0.0
0.0621906 -0.00120844 0.0
0.147001 -0.00668374 0.0
0.111327 -0.00391349 0.0
0.174273 -0.00910837 0.0
0 0 0.0
0 0 0.0
0 0 0.0
-0.000409586 0.00226044 0.0
-0.000101434 5.52001e-05 0.0
-0.000139294 0.000118313 0.0
0 0 0.0
0.0480816 0.000139566 0.0
0.128238 0.00121476 0.0
0.156901 0.00149429 0.0
0.0922478 0.000608843 0.0
0.236494 -0.00445813 0.0
0.238636 -0.00676686 0.0
0.238371 -0.00838681 0.0
0.216222 -0.00112254 0.0
0.228068 -0.00282279 0.0
0.198903 0.000163196 0.0
0.179626 0.00107012 0.0
0.232616 -0.0107734 0.0
0.226898 -0.0114872 0.0
0.218863 -0.0118474 0.0
0 0 0.0
-3.36474e-05 7.98134e-05 0.0
0 0 0.0
0 0 0.0
-0.00174117 0.00769252 0.0
-0.00181943 0.00544604 0.0
0.208554 -0.011844 0.0
0.196037 -0.0113089 0.0
0.114125 -0.00434895 0.0
0.0643912 -0.00138162 0.0
0.149747 -0.0074507 0.0
0.176163 -0.0101317 0.0
0 0 0.0
-0.000818512 0.00143869 0.0
-0.00135098 0.00316891 0.0
-0.000662207 0.000747522 0.0
-0.000784675 0.000603026 0.0
0 0 0.0
0.0483663 0.000108049 0.0
0.128752 0.00107076 0.0
0.156938 0.00135272 0.0
0.0928029 0.000501113 0.0
0.234693 -0.00496467 0.0
0.236777 -0.00751237 0.0
0.236756 -0.00931196 0.0
0.21401 -0.00141439 0.0
0.226622 -0.00309551 0.0
0.197621 -4.75087e-05 0.0
0.157036 0.00108332 0.0
0.179017 0.000826504 0.0
0.231529 -0.0116868 0.0
0.223885 -0.0126019 0.0
0.212221 -0.0130446 0.0
0 0 0.0
-0.000675711 0.000282097 0.0
0 0 0.0
0 0 0.0
0 0 0.0
0 0 0.0
-0.00344476 0.00572979 0.0
-0.000432555 0.00626202 0.0
-0.00168347 0.00953899 0.0
-0.00402872 0.012296 0.0
-0.0036257 0.00888087 0.0
0 0 0.0
1.25547e-05 0.00804188 0.0
0.197216 -0.0129193 0.0
0.177832 -0.0110642 0.0
0 0 0.0
0.0671632 -0.00163114 0.0
0.117555 -0.00492341 0.0
0.153263 -0.0085435 0.0
0 0 0.0
0 0 0.0
-0.00231954 0.00310362 0.0
-0.00203075 0.00186178 0.0
-0.00213847 0.00119795 0.0
0 0 0.0