# vtk DataFile Version 3.0
Mesh NS-CD Problem
ASCII
DATASET UNSTRUCTURED_GRID
POINTS 10839 float
-2 0.3 0.0
-2 0.4 0.0
-2 0.35 0.0
-2 0.45 0.0
-2 0.5 0.0
-2 0.55 0.0
-2 0 0.0
-2 0.05 0.0
-2 0.85 0.0
-2 0.9 0.0
-2 0.1 0.0
-2 0.15 0.0
-2 0.25 0.0
-2 0.2 0.0
-1.96653 0.266667 0.0
-1.96524 0.415385 0.0
-1.96485 0.315 0.0
-1.96348 0.363636 0.0
-1.96414 0.464286 0.0
-2 0.6 0.0
-1.96538 0.584615 0.0
-1.96538 0.538462 0.0
-1.94979 0 0.0
-1.96653 0.0666666 0.0
-1.93306 0.0333333 0.0
-2 0.8 0.0
-2 0.75 0.0
-2 0.7 0.0
-2 0.65 0.0
-1.96249 0.7375 0.0
-1.96666 0.833333 0.0
-2 1 0.0
-2 0.95 0.0
-1.96249 0.8875 0.0
-1.96666 0.933333 0.0
-1.96234 0.1125 0.0
-1.96653 0.166667 0.0
-1.93724 0.225 0.0
-1.92971 0.28 0.0
-1.93048 0.380769 0.0
-1.93048 0.423077 0.0
-1.89958 0.3375 0.0
-1.9292 0.484203 0.0
-1.92117 0.530907 0.0
-1.96363 0.636364 0.0
-1.93076 0.576923 0.0
-1.89958 0 0.0
-1.88703 0.0375 0.0
-1.90963 0.08 0.0
-1.86611 0.0666666 0.0
-1.93749 0.775 0.0
-1.93635 0.672727 0.0
-1.92999 0.72 0.0
-1.93332 0.866667 0.0
-1.92856 0.821429 0.0
-1.94999 1 0.0
-1.92499 0.9625 0.0
-1.92499 0.925 0.0
-1.89998 0.9 0.0
-1.89958 0.125 0.0
-1.92827 0.178571 0.0
-1.89958 0.233333 0.0
-1.89045 0.290909 0.0
-1.86096 0.311538 0.0
-1.89241 0.392857 0.0
-1.89334 0.448489 0.0
-1.85655 0.357143 0.0
-1.89614 0.653846 0.0
-1.89427 0.504121 0.0
-1.8952 0.559753 0.0
-1.89614 0.615385 0.0
-1.84937 0 0.0
-1.83264 0.0333333 0.0
-1.85655 0.107143 0.0
-1.81172 0.075 0.0
-1.89998 0.766667 0.0
-1.89089 0.709091 0.0
-1.87498 0.85 0.0
-1.85998 0.79 0.0
-1.88748 0.8125 0.0
-1.89998 1 0.0
-1.88748 0.9625 0.0
-1.86664 0.933333 0.0
-1.85712 0.892857 0.0
-1.87448 0.15 0.0
-1.86611 0.194444 0.0
-1.83264 0.133333 0.0
-1.83264 0.2625 0.0
-1.82068 0.321429 0.0
-1.85664 0.404762 0.0
-1.85674 0.452381 0.0
-1.85683 0.5 0.0
-1.81184 0.375 0.0
-1.85712 0.642857 0.0
-1.85693 0.547619 0.0
-1.85702 0.595238 0.0
-1.79917 0 0.0
-1.78482 0.0357143 0.0
-1.79917 0.116667 0.0
-1.76569 0.0666666 0.0
-1.85452 0.745455 0.0
-1.82689 0.692308 0.0
-1.81815 0.781818 0.0
-1.82497 0.825 0.0
-1.84997 1 0.0
-1.8333 0.958333 0.0
-1.81247 0.8875 0.0
-1.81247 0.925 0.0
-1.81742 0.218182 0.0
-1.82427 0.175 0.0
-1.77634 0.145455 0.0
-1.79144 0.242308 0.0
-1.78482 0.285714 0.0
-1.77469 0.332653 0.0
-1.81215 0.529762 0.0
-1.81194 0.422619 0.0
-1.81203 0.470238 0.0
-1.76714 0.392857 0.0
-1.81234 0.625 0.0
-1.79732 0.571429 0.0
-1.74896 0 0.0
-1.73222 0.0333333 0.0
-1.75398 0.105 0.0
-1.71883 0.07 0.0
-1.79227 0.730769 0.0
-1.78007 0.679121 0.0
-1.75765 0.769231 0.0
-1.78178 0.818182 0.0
-1.78996 0.86 0.0
-1.79996 1 0.0
-1.78568 0.964286 0.0
-1.76663 0.922222 0.0
-1.76569 0.1875 0.0
-1.73222 0.15 0.0
-1.74896 0.25 0.0
-1.73714 0.304762 0.0
-1.76743 0.537202 0.0
-1.72869 0.343878 0.0
-1.76732 0.485119 0.0
-1.76723 0.440476 0.0
-1.72243 0.410714 0.0
-1.76757 0.607143 0.0
-1.69875 0 0.0
-1.68369 0.035 0.0
-1.69875 0.1125 0.0
-1.66528 0.075 0.0
-1.74341 0.708974 0.0
-1.73324 0.665934 0.0
-1.70441 0.74478 0.0
-1.71423 0.785714 0.0
-1.72303 0.826923 0.0
-1.74541 0.854545 0.0
-1.74541 0.890909 0.0
-1.74996 1 0.0
-1.73745 0.9625 0.0
-1.71359 0.927273 0.0
-1.68716 0.153846 0.0
-1.7131 0.214286 0.0
-1.70725 0.275 0.0
-1.69712 0.321939 0.0
-1.72279 0.589286 0.0
-1.72261 0.5 0.0
-1.7227 0.544643 0.0
-1.6827 0.355102 0.0
-1.67773 0.428571 0.0
-1.70763 0.464286 0.0
-1.70369 0.62449 0.0
-1.64854 0 0.0
-1.63181 0.0375 0.0
-1.64137 0.142857 0.0
-1.61764 0.0769231 0.0
-1.69458 0.703846 0.0
-1.67471 0.657437 0.0
-1.66143 0.727637 0.0
-1.67125 0.768571 0.0
-1.67851 0.821429 0.0
-1.68841 0.861538 0.0
-1.70904 0.890909 0.0
-1.69995 1 0.0
-1.68176 0.963636 0.0
-1.67267 0.927273 0.0
-1.65427 0.187143 0.0
-1.66718 0.231429 0.0
-1.66554 0.3 0.0
-1.67802 0.571429 0.0
-1.67792 0.523809 0.0
-1.6367 0.366327 0.0
-1.63682 0.423469 0.0
-1.62568 0.502976 0.0
-1.6629 0.470238 0.0
-1.65254 0.618367 0.0
-1.6059 0.307143 0.0
-1.59833 0 0.0
-1.58288 0.0384615 0.0
-1.60563 0.169643 0.0
-1.58179 0.112271 0.0
-1.56964 0.0714286 0.0
-1.64574 0.690385 0.0
-1.62827 0.751429 0.0
-1.63371 0.791071 0.0
-1.64279 0.857143 0.0
-1.65378 0.896154 0.0
-1.64994 1 0.0
-1.6363 0.963636 0.0
-1.61916 0.930769 0.0
-1.61345 0.209107 0.0
-1.62126 0.248571 0.0
-1.56989 0.196429 0.0
-1.63324 0.553571 0.0
-1.58846 0.535714 0.0
-1.59408 0.361905 0.0
-1.59161 0.402211 0.0
-1.58832 0.464286 0.0
-1.61504 0.598581 0.0
-1.59683 0.64359 0.0
-1.57899 0.274107 0.0
-1.56176 0.322381 0.0
-1.54812 0 0.0
-1.53378 0.0357143 0.0
-1.54593 0.147619 0.0
-1.53385 0.0732143 0.0
-1.53393 0.110714 0.0
-1.58522 0.704286 0.0
-1.58709 0.745 0.0
-1.58896 0.785714 0.0
-1.60695 0.830357 0.0
-1.60707 0.892857 0.0
-1.59993 1 0.0
-1.58454 0.965385 0.0
-1.57135 0.928571 0.0
-1.55209 0.241071 0.0
-1.5291 0.198214 0.0
-1.56936 0.570918 0.0
-1.54369 0.517857 0.0
-1.5464 0.380952 0.0
-1.54564 0.427721 0.0
-1.54488 0.47449 0.0
-1.55026 0.606122 0.0
-1.54222 0.677143 0.0
-1.52943 0.282857 0.0
-1.52143 0.33619 0.0
-1.49792 0 0.0
-1.49802 0.05 0.0
-1.49822 0.15 0.0
-1.49312 0.1 0.0
-1.5423 0.717143 0.0
-1.54419 0.767857 0.0
-1.54727 0.819048 0.0
-1.57122 0.861905 0.0
-1.53553 0.914286 0.0
-1.54992 1 0.0
-1.53563 0.964286 0.0
-1.49842 0.25 0.0
-1.48831 0.2 0.0
-1.5214 0.558929 0.0
-1.49891 0.5 0.0
-1.49871 0.4 0.0
-1.47631 0.45 0.0
-1.49911 0.6 0.0
-1.49921 0.65 0.0
-1.49931 0.7 0.0
-1.48111 0.35 0.0
-1.48351 0.3 0.0
-1.44771 0 0.0
-1.44782 0.05 0.0
-1.44804 0.15 0.0
-1.44793 0.1 0.0
-1.49941 0.75 0.0
-1.49951 0.8 0.0
-1.49981 0.95 0.0
-1.49961 0.85 0.0
-1.49971 0.9 0.0
-1.49991 1 0.0
-1.44826 0.25 0.0
-1.43815 0.2 0.0
-1.47151 0.55 0.0
-1.44881 0.5 0.0
-1.44859 0.4 0.0
-1.42619 0.45 0.0
-1.44913 0.65 0.0
-1.44902 0.6 0.0
-1.44935 0.75 0.0
-1.44924 0.7 0.0
-1.43972 0.35 0.0
-1.43336 0.3 0.0
-1.3975 0 0.0
-1.39762 0.05 0.0
-1.39786 0.15 0.0
-1.39274 0.1 0.0
-1.44957 0.85 0.0
-1.44946 0.8 0.0
-1.4523 0.95 0.0
-1.44968 0.9 0.0
-1.4499 1 0.0
-1.3981 0.25 0.0
-1.38798 0.2 0.0
-1.42141 0.55 0.0
-1.3987 0.5 0.0
-1.39834 0.35 0.0
-1.37845 0.4 0.0
-1.37607 0.45 0.0
-1.40784 0.65 0.0
-1.39894 0.6 0.0
-1.41185 0.75 0.0
-1.39918 0.7 0.0
-1.38322 0.3 0.0
-1.34729 0 0.0
-1.34492 0.05 0.0
-1.34018 0.15 0.0
-1.34255 0.1 0.0
-1.40707 0.85 0.0
-1.39941 0.8 0.0
-1.39977 0.95 0.0
-1.39965 0.9 0.0
-1.39989 1 0.0
-1.33781 0.2 0.0
-1.33544 0.25 0.0
-1.37131 0.55 0.0
-1.34859 0.5 0.0
-1.33833 0.4 0.0
-1.3307 0.35 0.0
-1.32595 0.45 0.0
-1.34885 0.6 0.0
-1.36655 0.65 0.0
-1.36179 0.75 0.0
-1.34911 0.7 0.0
-1.33307 0.3 0.0
-1.29708 0 0.0
-1.29722 0.05 0.0
-1.2975 0.15 0.0
-1.29236 0.1 0.0
-1.35703 0.85 0.0
-1.34937 0.8 0.0
-1.34988 1 0.0
-1.34962 0.9 0.0
-1.35226 0.95 0.0
-1.28528 0.25 0.0
-1.28764 0.2 0.0
-1.28931 0.35 0.0
-1.32121 0.55 0.0
-1.29848 0.5 0.0
-1.28709 0.45 0.0
-1.2982 0.4 0.0
-1.29876 0.6 0.0
-1.31647 0.65 0.0
-1.29918 0.75 0.0
-1.29904 0.7 0.0
-1.28292 0.3 0.0
-1.24687 0 0.0
-1.24702 0.05 0.0
-1.24717 0.1 0.0
-1.24732 0.15 0.0
-1.29946 0.85 0.0
-1.29932 0.8 0.0
-1.29987 1 0.0
-1.29974 0.95 0.0
-1.30462 0.9 0.0
-1.24762 0.25 0.0
-1.23747 0.2 0.0
-1.24792 0.35 0.0
-1.22807 0.4 0.0
-1.27111 0.55 0.0
-1.24837 0.5 0.0
-1.24822 0.45 0.0
-1.24867 0.6 0.0
-1.26639 0.65 0.0
-1.26167 0.75 0.0
-1.24897 0.7 0.0
-1.23277 0.3 0.0
-1.19667 0 0.0
-1.19683 0.05 0.0
-1.18964 0.15 0.0
-1.19198 0.1 0.0
-1.25695 0.85 0.0
-1.24927 0.8 0.0
-1.25223 0.95 0.0
-1.24987 1 0.0
-1.24957 0.9 0.0
-1.1873 0.2 0.0
-1.18496 0.25 0.0
-1.18028 0.35 0.0
-1.17794 0.4 0.0
-1.1981 0.45 0.0
-1.19842 0.55 0.0
-1.19826 0.5 0.0
-1.19858 0.6 0.0
-1.19874 0.65 0.0
-1.19906 0.75 0.0
-1.1989 0.7 0.0
-1.18262 0.3 0.0
-1.14646 0 0.0
-1.14663 0.05 0.0
-1.1418 0.1 0.0
-1.13713 0.2 0.0
-1.14697 0.15 0.0
-1.20691 0.85 0.0
-1.20926 0.8 0.0
-1.20221 0.95 0.0
-1.19986 1 0.0
-1.20456 0.9 0.0
-1.13997 0.3 0.0
-1.14731 0.25 0.0
-1.13781 0.4 0.0
-1.13014 0.35 0.0
-1.12548 0.45 0.0
-1.14815 0.5 0.0
-1.15962 0.55 0.0
-1.14849 0.6 0.0
-1.15745 0.65 0.0
-1.16155 0.75 0.0
-1.14917 0.8 0.0
-1.14883 0.7 0.0
-1.09625 0 0.0
-1.09661 0.1 0.0
-1.09393 0.05 0.0
-1.09697 0.2 0.0
-1.08929 0.15 0.0
-1.15687 0.85 0.0
-1.14985 1 0.0
-1.15219 0.95 0.0
-1.14951 0.9 0.0
-1.09733 0.3 0.0
-1.08465 0.25 0.0
-1.09769 0.4 0.0
-1.08 0.35 0.0
-1.08661 0.45 0.0
-1.09804 0.5 0.0
-1.12082 0.55 0.0
-1.10916 0.8 0.0
-1.10629 0.7 0.0
-1.0984 0.6 0.0
-1.11616 0.65 0.0
-1.11149 0.75 0.0
-1.04604 0 0.0
-1.04623 0.05 0.0
-1.04642 0.1 0.0
-1.0468 0.2 0.0
-1.03911 0.15 0.0
-1.09948 0.9 0.0
-1.0993 0.85 0.0
-1.09984 1 0.0
-1.09966 0.95 0.0
-1.04718 0.3 0.0
-1.03449 0.25 0.0
-1.04756 0.4 0.0
-1.02986 0.35 0.0
-1.04775 0.45 0.0
-1.04794 0.5 0.0
-1.04813 0.55 0.0
-1.05911 0.8 0.0
-1.04831 0.6 0.0
-1.06376 0.7 0.0
-1.0485 0.65 0.0
-1.04888 0.75 0.0
-0.995833 0 0.0
-0.991231 0.1 0.0
-0.996033 0.05 0.0
-0.986629 0.2 0.0
-0.98893 0.15 0.0
-1.05447 0.9 0.0
-1.04926 0.85 0.0
-1.04983 1 0.0
-1.04964 0.95 0.0
-0.984328 0.25 0.0
-0.99703 0.3 0.0
-0.997429 0.4 0.0
-0.997628 0.45 0.0
-0.979726 0.35 0.0
-0.997827 0.5 0.0
-0.998027 0.55 0.0
-0.998226 0.6 0.0
-0.961416 0.475 0.0
-1.00907 0.8 0.0
-0.998426 0.65 0.0
-0.998625 0.7 0.0
-1.01138 0.75 0.0
-0.945625 0 0.0
-0.946044 0.1 0.0
-0.943334 0.05 0.0
-0.946463 0.2 0.0
-0.938752 0.15 0.0
-1.00444 0.9 0.0
-1.00675 0.85 0.0
-0.999821 1 0.0
-1.00213 0.95 0.0
-0.93417 0.25 0.0
-0.946881 0.3 0.0
-0.9473 0.4 0.0
-0.929588 0.35 0.0
-0.925005 0.45 0.0
-0.960371 0.525 0.0
-0.959325 0.575 0.0
-0.958279 0.625 0.0
-0.922714 0.5 0.0
-0.959017 0.8 0.0
-0.957233 0.675 0.0
-0.952999 0.7125 0.0
-0.948766 0.75 0.0
-0.895417 0 0.0
-0.895855 0.1 0.0
-0.893136 0.05 0.0
-0.896294 0.2 0.0
-0.888573 0.15 0.0
-0.949184 0.85 0.0
-0.954415 0.9 0.0
-0.949812 1 0.0
-0.949603 0.95 0.0
-0.884011 0.25 0.0
-0.896733 0.3 0.0
-0.874887 0.45 0.0
-0.879449 0.35 0.0
-0.897171 0.4 0.0
-0.920423 0.55 0.0
-0.918132 0.6 0.0
-0.915841 0.65 0.0
-0.872606 0.5 0.0
-0.908968 0.8 0.0
-0.91355 0.7 0.0
-0.898707 0.75 0.0
-0.845208 0 0.0
-0.845438 0.05 0.0
-0.845667 0.1 0.0
-0.845896 0.15 0.0
-0.833853 0.25 0.0
-0.846126 0.2 0.0
-0.899146 0.85 0.0
-0.904386 0.9 0.0
-0.899584 0.95 0.0
-0.899804 1 0.0
-0.838062 0.35 0.0
[...]
POINT_DATA 10839
VECTORS Velocity float
0.21 0 0.0
0.24 0 0.0
0.2275 0 0.0
0.2475 0 0.0
0.25 0 0.0
0.2475 0 0.0
0 0 0.0
0.0475 0 0.0
0.1275 0 0.0
0.09 0 0.0
0.09 0 0.0
0.1275 0 0.0
0.1875 0 0.0
0.16 0 0.0
0.195557 -2.43969e-05 0.0
0.242841 -3.32592e-05 0.0
0.215776 -2.90298e-05 0.0
0.231406 -3.27189e-05 0.0
0.248725 -3.54086e-05 0.0
0.24 0 0.0
0.24284 -3.31849e-05 0.0
0.24852 -3.41003e-05 0.0
0 0 0.0
0.0622239 -4.26603e-06 0.0
0.032227 -2.82055e-06 0.0
0.16 0 0.0
0.1875 0 0.0
0.21 0 0.0
0.2275 0 0.0
0.193592 -2.73851e-05 0.0
0.138887 -1.52217e-05 0.0
0 0 0.0
0.0475 0 0.0
0.0998414 -1.05825e-05 0.0
0.0622205 -4.314e-06 0.0
0.0998462 -1.10567e-05 0.0
0.138891 -1.53562e-05 0.0
0.17438 -3.84545e-05 0.0
0.201606 -5.26525e-05 0.0
0.235787 -6.42608e-05 0.0
0.244085 -6.72345e-05 0.0
0.223602 -8.6136e-05 0.0
0.249751 -7.02417e-05 0.0
0.249044 -7.82663e-05 0.0
0.231404 -3.32495e-05 0.0
0.244081 -6.64401e-05 0.0
0 0 0.0
0.0361083 -5.45317e-06 0.0
0.0736129 -1.52334e-05 0.0
0.0622496 -1.66925e-05 0.0
0.17437 -3.78913e-05 0.0
0.220162 -5.26259e-05 0.0
0.201594 -5.27319e-05 0.0
0.115548 -2.27431e-05 0.0
0.146676 -3.52172e-05 0.0
0 0 0.0
0.0360873 -3.67519e-06 0.0
0.0693659 -1.1914e-05 0.0
0.0899832 -2.36294e-05 0.0
0.109391 -3.19501e-05 0.0
0.146692 -3.4534e-05 0.0
0.178902 -6.44634e-05 0.0
0.206293 -8.4262e-05 0.0
0.214501 -0.000113526 0.0
0.238527 -0.000100707 0.0
0.24735 -0.000104861 0.0
0.229607 -0.00012817 0.0
0.226323 -9.05047e-05 0.0
0.249983 -0.000105378 0.0
0.246426 -0.000102525 0.0
0.23668 -9.6538e-05 0.0
0 0 0.0
0.032251 -6.16487e-06 0.0
0.0956971 -3.62854e-05 0.0
0.0694301 -2.73525e-05 0.0
0.178876 -6.34856e-05 0.0
0.206269 -8.49012e-05 0.0
0.127476 -4.89706e-05 0.0
0.165873 -8.0338e-05 0.0
0.152325 -5.75481e-05 0.0
0 0 0.0
0.0360794 -5.28194e-06 0.0
0.0621954 -1.65171e-05 0.0
0.0956295 -3.69758e-05 0.0
0.127525 -4.94401e-05 0.0
0.156661 -7.17966e-05 0.0
0.115601 -5.67623e-05 0.0
0.193627 -0.000118358 0.0
0.218142 -0.000149744 0.0
0.24094 -0.000136555 0.0
0.247738 -0.000141614 0.0
0.25 -0.000143159 0.0
0.234398 -0.000173333 0.0
0.229576 -0.000126404 0.0
0.247727 -0.000141304 0.0
0.240919 -0.000136318 0.0
0 0 0.0
0.034488 -8.5383e-06 0.0
0.103122 -5.57755e-05 0.0
0.0623042 -2.77124e-05 0.0
0.189727 -0.000100602 0.0
0.212988 -0.000140488 0.0
0.170533 -0.00010895 0.0
0.144329 -8.08813e-05 0.0
0 0 0.0
0.0398976 -9.09265e-06 0.0
0.0997854 -5.07115e-05 0.0
0.0693204 -2.69076e-05 0.0
0.170625 -0.000109066 0.0
0.144422 -8.26261e-05 0.0
0.124378 -8.37926e-05 0.0
0.18365 -0.000137855 0.0
0.204132 -0.000165027 0.0
0.222039 -0.000194285 0.0
0.249109 -0.000187932 0.0
0.244027 -0.000182925 0.0
0.24912 -0.000187939 0.0
0.238551 -0.000220653 0.0
0.234352 -0.000172321 0.0
0.244882 -0.000198109 0.0
0 0 0.0
0.0322929 -9.04496e-06 0.0
0.0940755 -5.86393e-05 0.0
0.0652189 -3.50638e-05 0.0
0.196695 -0.000150744 0.0
0.217871 -0.000185181 0.0
0.177437 -0.000153012 0.0
0.148689 -0.000106794 0.0
0.120328 -7.47822e-05 0.0
0 0 0.0
0.0343901 -8.62384e-06 0.0
0.0716431 -3.51826e-05 0.0
0.152425 -0.000119759 0.0
0.127616 -0.000104053 0.0
0.187579 -0.000170952 0.0
0.211952 -0.000212912 0.0
0.248605 -0.000233277 0.0
0.225686 -0.000241208 0.0
0.249783 -0.000234966 0.0
0.246474 -0.000231009 0.0
0.242065 -0.000270324 0.0
0.23849 -0.000220042 0.0
0 0 0.0
0.0338756 -1.13399e-05 0.0
0.0999949 -7.83307e-05 0.0
0.0695472 -4.66988e-05 0.0
0.20626 -0.000199358 0.0
0.222404 -0.000232371 0.0
0.189974 -0.000207166 0.0
0.168252 -0.000167338 0.0
0.143002 -0.000128386 0.0
0.124193 -9.47542e-05 0.0
0.0970826 -6.36644e-05 0.0
0 0 0.0
0.0360198 -1.09861e-05 0.0
0.0673133 -3.77136e-05 0.0
0.130336 -0.000125754 0.0
0.168484 -0.000168125 0.0
0.199474 -0.000219301 0.0
0.218379 -0.000257349 0.0
0.241992 -0.000270992 0.0
0.25 -0.000282864 0.0
0.247988 -0.00027957 0.0
0.229082 -0.000290369 0.0
0.244938 -0.000321886 0.0
0.248741 -0.000296818 0.0
0.234445 -0.000277656 0.0
0 0 0.0
0.0362344 -1.46243e-05 0.0
0.122661 -0.000128846 0.0
0.071232 -5.52496e-05 0.0
0.208349 -0.000243818 0.0
0.225125 -0.000290147 0.0
0.198046 -0.000253145 0.0
0.177724 -0.000209656 0.0
0.146524 -0.00015464 0.0
0.11913 -0.000108066 0.0
0.0970494 -7.22298e-05 0.0
0 0 0.0
0.0349373 -1.23047e-05 0.0
0.0672756 -4.24717e-05 0.0
0.152303 -0.000175761 0.0
0.178019 -0.000214585 0.0
0.210117 -0.000271426 0.0
0.244858 -0.000321805 0.0
0.24942 -0.000330584 0.0
0.232226 -0.000341548 0.0
0.244198 -0.000366192 0.0
0.249988 -0.000390836 0.0
0.249132 -0.00034734 0.0
0.235912 -0.0003325 0.0
0.212965 -0.000331409 0.0
0 0 0.0
0.0371637 -1.72327e-05 0.0
0.141113 -0.000179327 0.0
0.0999611 -0.000108489 0.0
0.0666031 -5.3857e-05 0.0
0.213627 -0.00029663 0.0
0.186605 -0.000258271 0.0
0.165082 -0.000210216 0.0
0.122238 -0.000129601 0.0
0.0928634 -7.92406e-05 0.0
0 0 0.0
0.0349073 -1.37431e-05 0.0
0.0642238 -4.51174e-05 0.0
0.1656 -0.000224671 0.0
0.18697 -0.000264016 0.0
0.158127 -0.00023506 0.0
0.247091 -0.00037605 0.0
0.248691 -0.000432162 0.0
0.231053 -0.000383496 0.0
0.240527 -0.000409252 0.0
0.248758 -0.000431796 0.0
0.240202 -0.000382492 0.0
0.229255 -0.000375794 0.0
0.199184 -0.000324437 0.0
0.218636 -0.000387697 0.0
0 0 0.0
0.0346518 -1.6912e-05 0.0
0.126174 -0.0001743 0.0
0.0681822 -6.08621e-05 0.0
0.098824 -0.00011815 0.0
0.20808 -0.000339231 0.0
0.189757 -0.000295823 0.0
0.168123 -0.0002456 0.0
0.140616 -0.000178014 0.0
0.0954056 -9.4269e-05 0.0
0 0 0.0
0.0332509 -1.40694e-05 0.0
0.0660524 -5.37287e-05 0.0
0.183226 -0.00030655 0.0
0.159267 -0.000263036 0.0
0.244897 -0.000445533 0.0
0.24966 -0.000488989 0.0
0.235963 -0.000448647 0.0
0.244859 -0.000474187 0.0
0.249378 -0.000487827 0.0
0.238619 -0.000451091 0.0
0.218418 -0.000407755 0.0
0.203107 -0.000378422 0.0
0.223373 -0.000443173 0.0
0 0 0.0
0.0478098 -3.37479e-05 0.0
0.127926 -0.000198704 0.0
0.0904291 -0.000110967 0.0
0.202605 -0.000364588 0.0
0.177963 -0.000299963 0.0
0.147883 -0.000225251 0.0
0.118716 -0.000147811 0.0
0.0780226 -7.91838e-05 0.0
0 0 0.0
0.0342285 -1.65803e-05 0.0
0.187836 -0.000362852 0.0
0.160406 -0.000292638 0.0
0.246451 -0.00050896 0.0
0.25 -0.000548301 0.0
0.240141 -0.000517806 0.0
0.247578 -0.000570733 0.0
0.239858 -0.000517354 0.0
0.22729 -0.000479053 0.0
0.209726 -0.000426286 0.0
0.227726 -0.000502824 0.0
0.210293 -0.000444175 0.0
0 0 0.0
0.0478741 -3.76532e-05 0.0
0.128022 -0.000221802 0.0
0.0905121 -0.000122014 0.0
0.187166 -0.000360973 0.0
0.159613 -0.000283114 0.0
0.047194 -3.31135e-05 0.0
0.127078 -0.000196048 0.0
0.0895838 -0.000108707 0.0
0 0 0.0
0.187912 -0.000407674 0.0
0.160497 -0.000327486 0.0
0.247419 -0.000577191 0.0
0.249999 -0.000617576 0.0
0.240174 -0.000583624 0.0
0.247595 -0.00064147 0.0
0.227242 -0.000539194 0.0
0.239825 -0.000582376 0.0
0.187089 -0.000405399 0.0
0.209663 -0.000479471 0.0
0.227767 -0.000551869 0.0
0.210359 -0.000499189 0.0
0 0 0.0
0.0479448 -4.12782e-05 0.0
0.128129 -0.000246607 0.0
0.0906247 -0.000136837 0.0
0.126982 -0.000219687 0.0
0.159526 -0.000317603 0.0
0.047134 -3.6726e-05 0.0
0.089493 -0.000120825 0.0
0 0 0.0
0.187999 -0.000455223 0.0
0.160599 -0.000365051 0.0
0.247401 -0.000647635 0.0
0.249999 -0.000691723 0.0
0.227812 -0.000605297 0.0
0.240226 -0.000682399 0.0
0.247614 -0.000717843 0.0
0.227197 -0.000590148 0.0
0.239788 -0.000652198 0.0
0.187025 -0.000439564 0.0
0.209591 -0.000536268 0.0
0.210433 -0.000557988 0.0
0 0 0.0
0.0480278 -4.5901e-05 0.0
0.128268 -0.000277397 0.0
0.0907394 -0.000151148 0.0
0.126893 -0.000239952 0.0
0.159426 -0.000353617 0.0
0.047061 -4.0803e-05 0.0
0.0893925 -0.000133398 0.0
0 0 0.0
0.160714 -0.000404975 0.0
0.188123 -0.000518995 0.0
0.247381 -0.000723182 0.0
0.249998 -0.000771381 0.0
0.24026 -0.000745226 0.0
0.227897 -0.000700101 0.0
0.247635 -0.000798904 0.0
0.239746 -0.000726609 0.0
0.227148 -0.000645813 0.0
0.186931 -0.000488858 0.0
0.209511 -0.00059665 0.0
0.210516 -0.000621701 0.0
0 0 0.0
0.0481113 -5.06639e-05 0.0
0.128383 -0.000302506 0.0
0.090866 -0.000166764 0.0
0.126776 -0.000265566 0.0
0.159315 -0.000392586 0.0
0 0 0.0
0.0892803 -0.000147591 0.0
0.0469874 -4.48512e-05 0.0
0.188235 -0.000577473 0.0
0.160841 -0.000448958 0.0
0.227955 -0.000763565 0.0
0.247358 -0.000805183 0.0
0.249997 -0.000857807 0.0
0.247654 -0.000867426 0.0
0.240298 -0.000811017 0.0
0.239699 -0.00080732 0.0
0.227082 -0.000717952 0.0
0.186797 -0.000555401 0.0
0.209421 -0.000662768 0.0
0.210609 -0.000689909 0.0
0 0 0.0
0.0482063 -5.58347e-05 0.0
0.0909915 -0.000181691 0.0
0.12853 -0.000333749 0.0
0.126626 -0.000297579 0.0
0.159191 -0.000434554 0.0
0 0 0.0
0.0468992 -4.93664e-05 0.0
0.0891703 -0.000160709 0.0
0.188329 -0.000623086 0.0
0.160984 -0.000496902 0.0
0.228017 -0.000831873 0.0
0.24037 -0.000937495 0.0
0.247333 -0.000894214 0.0
0.249996 -0.000951066 0.0
0.247674 -0.000939661 0.0
0.239647 -0.000894733 0.0
0.227008 -0.000796277 0.0
0.186707 -0.000599502 0.0
0.209321 -0.000733243 0.0
0.210713 -0.000764971 0.0
0 0 0.0
0.048312 -6.12613e-05 0.0
0.128721 -0.000374549 0.0
0.0911612 -0.00020283 0.0
0.126503 -0.000323657 0.0
0.159053 -0.000480088 0.0
0.046811 -5.3685e-05 0.0
0 0 0.0
0.089022 -0.000178554 0.0
0.161142 -0.000549272 0.0
0.188499 -0.000706006 0.0
0.228135 -0.000954376 0.0
0.24043 -0.00104006 0.0
0.247701 -0.00104165 0.0
0.24729 -0.00103447 0.0
0.249995 -0.00105455 0.0
0.239588 -0.000991975 0.0
0.226894 -0.000910661 0.0
0.186543 -0.000678075 0.0
0.20921 -0.000811297 0.0
0.210827 -0.00084655 0.0
0 0 0.0
0.0484269 -6.70399e-05 0.0
0.0913313 -0.000222185 0.0
0.161317 -0.000604926 0.0
0.128877 -0.000406136 0.0
0.126344 -0.000356742 0.0
0.158932 -0.00051942 0.0
0.0467082 -5.94456e-05 0.0
0 0 0.0
0.0888862 -0.00019506 0.0
0.210935 -0.000922567 0.0
0.188616 -0.000762755 0.0
0.240481 -0.00112701 0.0
0.228232 -0.00105905 0.0
0.247747 -0.00120356 0.0
0.249993 -0.00116596 0.0
0.247263 -0.0011182 0.0
0.239523 -0.00109578 0.0
0.226816 -0.000988194 0.0
0.186432 -0.000730033 0.0
0.158732 -0.000584496 0.0
0.209087 -0.000894749 0.0
0 0 0.0
0.0915018 -0.000242547 0.0
0.0485622 -7.43056e-05 0.0
0.161472 -0.000656273 0.0
0.129109 -0.000455761 0.0
0.126169 -0.000393606 0.0
0 0 0.0
0.0465952 -6.55749e-05 0.0
0.0887052 -0.00021716 0.0
0.211053 -0.00100375 0.0
0.188826 -0.000866528 0.0
0.240537 -0.00122091 0.0
0.228341 -0.00117292 0.0
0.247772 -0.00130376 0.0
0.249989 -0.00128925 0.0
0.247235 -0.00121035 0.0
0.158585 -0.000629531 0.0
0.208971 -0.000971549 0.0
0.239449 -0.00120807 0.0
0.22673 -0.00107253 0.0
0.186272 -0.000805275 0.0
0 0 0.0
0.0486949 -8.07629e-05 0.0
0.0917057 -0.000266076 0.0
0.161685 -0.000724113 0.0
0.129338 -0.00050283 0.0
0.0885217 -0.000238964 0.0
0.125945 -0.000440304 0.0
0 0 0.0
0.0464647 -7.29085e-05 0.0
0.211205 -0.00111063 0.0
0.189019 -0.000959593 0.0
0.240613 -0.00135039 0.0
0.22846 -0.00129924 0.0
0.2478 -0.00141125 0.0
0.249986 -0.00142558 0.0
0.247173 -0.0013937 0.0
0.158386 -0.000692932 0.0
0.239368 -0.00133316 0.0
0.208847 -0.00105187 0.0
0.226577 -0.001224 0.0
0.186049 -0.000911098 0.0
0 0 0.0
0.0919566 -0.000295565 0.0
0.0488473 -8.84069e-05 0.0
0.161969 -0.000816118 0.0
0.129589 -0.00055507 0.0
0.0883415 -0.000261429 0.0
0.125729 -0.000486679 0.0
0 0 0.0
0.0463255 -8.08876e-05 0.0
0.189231 -0.00106447 0.0
0.211374 -0.00123081 0.0
0.240697 -0.00149629 0.0
0.247839 -0.00155779 0.0
0.228591 -0.001439 0.0
0.24998 -0.00157193 0.0
0.247125 -0.00154079 0.0
0.239278 -0.00146701 0.0
0.249545 -0.00168971 0.0
0.158165 -0.000762267 0.0
0.226445 -0.0013484 0.0
0.208633 -0.00119061 0.0
0.185901 -0.000978556 0.0
0 0 0.0
0.0921868 -0.000322974 0.0
0.0490265 -9.79963e-05 0.0
0.162184 -0.000887022 0.0
0.129869 -0.000613787 0.0
0.0881223 -0.000288782 0.0
0.125528 -0.000529078 0.0
0 0 0.0
0.0461808 -8.93871e-05 0.0
0.189468 -0.00118119 0.0
0.211562 -0.00136561 0.0
0.240783 -0.00165457 0.0
0.228736 -0.00159778 0.0
0.247897 -0.00180416 0.0
0.24915 -0.00168283 0.0
0.243761 -0.00162741 0.0
0.233386 -0.00152455 0.0
0.249964 -0.00182583 0.0
0.157925 -0.000837539 0.0
0.218027 -0.00137922 0.0
0.203227 -0.00124823 0.0
0.185633 -0.00109862 0.0
0 0 0.0
0.0924643 -0.000356942 0.0
0.0492117 -0.000107127 0.0
0.162476 -0.000985879 0.0
0.130181 -0.000681605 0.0
0.125233 -0.00059121 0.0
0.0878804 -0.00031934 0.0
0 0 0.0
0.0460046 -9.89445e-05 0.0
0.189731 -0.00131445 0.0
0.211769 -0.00151762 0.0
0.247935 -0.0019938 0.0
0.228893 -0.00177414 0.0
0.240884 -0.00183493 0.0
0.247032 -0.0017941 0.0
0.239108 -0.0017099 0.0
0.226197 -0.0015764 0.0
0.249945 -0.00201541 0.0
0.157661 -0.000919916 0.0
0.20831 -0.00139568 0.0
0.185391 -0.00120489 0.0
0 0 0.0
0.0494077 -0.000117581 0.0
0.0927741 -0.000397458 0.0
0.130476 -0.000746997 0.0
0.190023 -0.00146422 0.0
0.162804 -0.00109934 0.0
0.124949 -0.000649622 0.0
0.0876141 -0.000352636 0.0
0.0458159 -0.000109767 0.0
0 0 0.0
0.229035 -0.00193786 0.0
0.211998 -0.00169217 0.0
0.247969 -0.00215923 0.0
0.240986 -0.00203872 0.0
0.226023 -0.00172796 0.0
0.246957 -0.00197538 0.0
0.23898 -0.00187886 0.0
0.249924 -0.00222467 0.0
0.185132 -0.00131568 0.0
0.157315 -0.00102194 0.0
0.208022 -0.00156905 0.0
0 0 0.0
0.0496364 -0.000131963 0.0
0.0931596 -0.00044967 0.0
0.13086 -0.000835732 0.0
0.190262 -0.00159666 0.0
0.163246 -0.00126499 0.0
0.124641 -0.000710281 0.0
0.0872948 -0.000390969 0.0
0.0456103 -0.000120769 0.0
0 0 0.0
0.124304 -0.000774631 0.0
0.229185 -0.00211197 0.0
0.21233 -0.00195923 0.0
0.241141 -0.0023665 0.0
0.248 -0.00233522 0.0
0.225758 -0.00195026 0.0
0.23884 -0.00206035 0.0
0.246873 -0.00217597 0.0
0.249887 -0.00245621 0.0
0.184846 -0.00143255 0.0
0.156996 -0.00111573 0.0
0.207774 -0.00171523 0.0
0 0 0.0
0.0498929 -0.000148001 0.0
0.0935574 -0.000507989 0.0
0.131292 -0.000943305 0.0
0.190616 -0.00178967 0.0
0.163668 -0.00142785 0.0
0.0453798 -0.000134124 0.0
0.0869717 -0.000428736 0.0
0 0 0.0
0.123999 -0.000826663 0.0
0.229381 -0.00236175 0.0
0.212616 -0.00219795 0.0
0.241257 -0.00263355 0.0
0.248033 -0.00259172 0.0
0.225568 -0.00209919 0.0
0.238679 -0.00225716 0.0
0.249842 -0.00271326 0.0
0.246722 -0.00249912 0.0
0.184611 -0.00152041 0.0
0.156649 -0.00120827 0.0
0.2075 -0.00186411 0.0
0 0 0.0
0.0501811 -0.000167647 0.0
0.0940069 -0.000576851 0.0
0.131855 -0.00109056 0.0
0.191104 -0.00207806 0.0
0.212926 -0.00247475 0.0
0.164135 -0.00162113 0.0
0.0451458 -0.000145484 0.0
0.0866257 -0.000465249 0.0
0 0 0.0
0.123612 -0.000888187 0.0
0.229665 -0.00274362 0.0
0.241351 -0.0028772 0.0
0.248062 -0.00287703 0.0
0.249792 -0.00292667 0.0
0.225365 -0.00225043 0.0
0.238486 -0.00247469 0.0
0.246588 -0.00274709 0.0
0.156274 -0.0013007 0.0
0.184275 -0.00164288 0.0
0.207192 -0.00201967 0.0
0 0 0.0
0.050534 -0.000193535 0.0
0.0945252 -0.000664722 0.0
0.132419 -0.00125172 0.0
0.191435 -0.00228602 0.0
0.21326 -0.00278615 0.0
0.16466 -0.00184833 0.0
0.044878 -0.000157115 0.0
0.0862534 -0.000500303 0.0
0 0 0.0
0.155951 -0.00136529 0.0
0.0858605 -0.000529895 0.0
0.123135 -0.000952517 0.0
0.229892 -0.00309409 0.0
0.241441 -0.00313317 0.0
0.24808 -0.00334979 0.0
0.249737 -0.00315053 0.0
0.246469 -0.00295807 0.0
0.225087 -0.00244407 0.0
0.238177 -0.00280299 0.0
0.183806 -0.00179295 0.0
0.206904 -0.00216087 0.0
0.23009 -0.00340117 0.0
0 0 0.0
0.0509203 -0.000224036 0.0
0.133062 -0.00144581 0.0
0.0951198 -0.000772259 0.0
0.213627 -0.003157 0.0
0.192032 -0.00268356 0.0
0.165247 -0.00211696 0.0
0.0445797 -0.000167109 0.0
0 0 0.0
0.183491 -0.00188559 0.0
0.155516 -0.00144803 0.0
0.122688 -0.00100496 0.0
0.0442708 -0.000179765 0.0
0.0854429 -0.00055784 0.0
0.241558 -0.00350345 0.0
0.248073 -0.00363985 0.0
0.24963 -0.00348161 0.0
0.249534 -0.00375777 0.0
0.246325 -0.00317963 0.0
0.224762 -0.00265266 0.0
0.237896 -0.00306021 0.0
0.206583 -0.00229358 0.0
0.23028 -0.00374684 0.0
0.0513499 -0.000260487 0.0
0 0 0.0
0.133676 -0.00163656 0.0
0.0958043 -0.000898308 0.0
0.214015 -0.00357895 0.0
0.192429 -0.00296666 0.0
0.165906 -0.00243589 0.0
0 0 0.0
0.183041 -0.0019963 0.0
0.154948 -0.00153238 0.0
0.122293 -0.00103397 0.0
0.0439703 -0.000187344 0.0
0.08501 -0.000579909 0.0
0.241697 -0.00410636 0.0
0.248058 -0.0039466 0.0
0.249409 -0.00404729 0.0
0.246003 -0.00363058 0.0
0.224398 -0.00286549 0.0
0.237582 -0.00333275 0.0
0.20603 -0.00250981 0.0
0.230535 -0.0042284 0.0
0 0 0.0
0.0518729 -0.000307626 0.0
0.134491 -0.00190276 0.0
0.0965225 -0.00103689 0.0
0.16664 -0.00280465 0.0
0.214431 -0.00406954 0.0
0.193153 -0.00350399 0.0
0 0 0.0
0 0 0.0
0.182533 -0.00210648 0.0
0.15443 -0.00159604 0.0
0.121804 -0.00106641 0.0
0.0845669 -0.000596202 0.0
0.0436433 -0.00019297 0.0
0.24178 -0.00460185 0.0
0.248 -0.00439565 0.0
0.237283 -0.00356632 0.0
0.249211 -0.00447145 0.0
0.245707 -0.0039881 0.0
0.22397 -0.00309345 0.0
0.20553 -0.00267474 0.0
0.241828 -0.00505019 0.0
0.23077 -0.0047755 0.0
0.0524852 -0.000361052 0.0
0.0974343 -0.00121103 0.0
0.135425 -0.00222022 0.0
0.167296 -0.0031547 0.0
0.214876 -0.00462539 0.0
0.193625 -0.00389462 0.0
0 0 0.0
0 0 0.0
0.153989 -0.0016305 0.0
0.18183 -0.00222673 0.0
0.0841615 -0.000601622 0.0
0.121216 -0.00108961 0.0
0.0433028 -0.000198911 0.0
0.247863 -0.00511809 0.0
0.248944 -0.00494621 0.0
0.204974 -0.00283937 0.0
0.236942 -0.00380585 0.0
0.245445 -0.00428761 0.0
0.223293 -0.00341071 0.0
0.241862 -0.00551983 0.0
0.231106 -0.00562983 0.0
0.215336 -0.00526607 0.0
0.0532519 -0.000429372 0.0
0.0984969 -0.00142745 0.0
0.136667 -0.00264961 0.0
0.168203 -0.00363992 0.0
0.194488 -0.00462606 0.0
0 0 0.0
0 0 0.0
0.15328 -0.00167658 0.0
0.181189 -0.00232424 0.0
0.0836693 -0.00060336 0.0
0.120688 -0.00109992 0.0
0.0429521 -0.000201076 0.0
0.245137 -0.00460728 0.0
0.248619 -0.0054571 0.0
0.247687 -0.00570991 0.0
0.20434 -0.00300557 0.0
0.236454 -0.00413327 0.0
0.222693 -0.00367237 0.0
0.180488 -0.00241424 0.0
0.24185 -0.00647315 0.0
0 0 0.0
0.231311 -0.00637765 0.0
0.195248 -0.00531974 0.0
0.215812 -0.00598593 0.0
0.0540783 -0.00050706 0.0
0.137731 -0.00303246 0.0
0.099876 -0.00171696 0.0
0.169426 -0.00435151 0.0
0 0 0.0
0 0 0.0
0 0 0.0
0 0 0.0
0 0 0.0
0.0426345 -0.00020024 0.0
0.120146 -0.00110441 0.0
0.152638 -0.00171086 0.0
0.0832546 -0.000604378 0.0
0.244666 -0.00503821 0.0
0.248206 -0.0060269 0.0
0.247466 -0.00636027 0.0
0.222131 -0.00387798 0.0
0.203616 -0.00317477 0.0
0.235617 -0.00462614 0.0
0.202934 -0.00331939 0.0
0.179905 -0.00247644 0.0
0.241768 -0.00726567 0.0
0.231509 -0.00719497 0.0
0 0 0.0
9.41073e-05 -3.92174e-05 0.0
0 0 0.0
-0.000326878 0.00181103 0.0
0.216312 -0.00681594 0.0
0.195868 -0.00589636 0.0
0.0551503 -0.00061201 0.0
0.139134 -0.00354052 0.0
0.101347 -0.00203156 0.0
0.170596 -0.00504938 0.0
0 0 0.0
0 0 0.0
0 0 0.0
-0.000239725 0.000950214 0.0
-1.4508e-05 -0.000123681 0.0
4.99678e-05 -6.85299e-05 0.0
0 0 0.0
0.042293 -0.000201338 0.0
0.119674 -0.00110206 0.0
0.151953 -0.00173967 0.0
0.0827612 -0.00060268 0.0
0.244109 -0.00551898 0.0
0.2477 -0.00665 0.0
0.24716 -0.0070742 0.0
0.2215 -0.00410489 0.0
0.235047 -0.0049447 0.0
0.202177 -0.00346357 0.0
0.178857 -0.00258483 0.0
0.241638 -0.00813304 0.0
0.234615 -0.00808432 0.0
0.224812 -0.00783862 0.0
0 0 0.0
0.000141765 -3.77368e-06 0.0
0 0 0.0
0 0 0.0
-0.00116771 0.0041647 0.0
-0.0011067 0.00268435 0.0
0.212197 -0.00742963 0.0
0.196734 -0.00676794 0.0
0.102889 -0.00236981 0.0
0.0563105 -0.000737882 0.0
0.140731 -0.00414735 0.0
0.17188 -0.00585469 0.0
0 0 0.0
-0.000373965 0.000425767 0.0
-0.000736916 0.00133861 0.0
-0.000213024 0.00013405 0.0
-0.000155899 0.000166455 0.0
0 0 0.0
0.0419548 -0.000202087 0.0
0.11911 -0.00110085 0.0
0.151231 -0.00176062 0.0
0.0823095 -0.000601056 0.0
0.24344 -0.00603667 0.0
0.24709 -0.00732667 0.0
0.246761 -0.00785919 0.0
0.220311 -0.00450038 0.0
0.234405 -0.00526616 0.0
0.201183 -0.00365371 0.0
0.150469 -0.00180007 0.0
0.177919 -0.00268577 0.0
0.241471 -0.00888509 0.0
0.231744 -0.00878771 0.0
0.21716 -0.00849872 0.0
0 0 0.0
-6.41056e-05 0.000108831 0.0
0 0 0.0
0 0 0.0
0 0 0.0
0 0 0.0
-0.00198181 0.00286816 0.0
-0.000333164 0.00363255 0.0
-0.0012051 0.00545559 0.0
-0.00278921 0.00718358 0.0
-0.00232658 0.00485145 0.0
0 0 0.0
-7.31173e-05 0.00558839 0.0
0.197887 -0.00806024 0.0
0.173007 -0.00661708 0.0
0 0 0.0
0.057847 -0.000915097 0.0
0.104865 -0.0028357 0.0
0.142848 -0.00503607 0.0
0 0 0.0
0 0 0.0
-0.00116384 0.00133932 0.0
-0.000856469 0.000748861 0.0
-0.000774176 0.000530332 0.0
0 0 0.0