# vtk DataFile Version 3.0
Mesh NS-CD Problem
ASCII
DATASET UNSTRUCTURED_GRID
POINTS 10839 float
-2 0.3 0.0
-2 0.4 0.0
-2 0.35 0.0
-2 0.45 0.0
-2 0.5 0.0
-2 0.55 0.0
-2 0 0.0
-2 0.05 0.0
-2 0.85 0.0
-2 0.9 0.0
-2 0.1 0.0
-2 0.15 0.0
-2 0.25 0.0
-2 0.2 0.0
-1.96653 0.266667 0.0
-1.96524 0.415385 0.0
-1.96485 0.315 0.0
-1.96348 0.363636 0.0
-1.96414 0.464286 0.0
-2 0.6 0.0
-1.96538 0.584615 0.0
-1.96538 0.538462 0.0
-1.94979 0 0.0
-1.96653 0.0666666 0.0
-1.93306 0.0333333 0.0
-2 0.8 0.0
-2 0.75 0.0
-2 0.7 0.0
-2 0.65 0.0
-1.96249 0.7375 0.0
-1.96666 0.833333 0.0
-2 1 0.0
-2 0.95 0.0
-1.96249 0.8875 0.0
-1.96666 0.933333 0.0
-1.96234 0.1125 0.0
-1.96653 0.166667 0.0
-1.93724 0.225 0.0
-1.92971 0.28 0.0
-1.93048 0.380769 0.0
-1.93048 0.423077 0.0
-1.89958 0.3375 0.0
-1.9292 0.484203 0.0
-1.92117 0.530907 0.0
-1.96363 0.636364 0.0
-1.93076 0.576923 0.0
-1.89958 0 0.0
-1.88703 0.0375 0.0
-1.90963 0.08 0.0
-1.86611 0.0666666 0.0
-1.93749 0.775 0.0
-1.93635 0.672727 0.0
-1.92999 0.72 0.0
-1.93332 0.866667 0.0
-1.92856 0.821429 0.0
-1.94999 1 0.0
-1.92499 0.9625 0.0
-1.92499 0.925 0.0
-1.89998 0.9 0.0
-1.89958 0.125 0.0
-1.92827 0.178571 0.0
-1.89958 0.233333 0.0
-1.89045 0.290909 0.0
-1.86096 0.311538 0.0
-1.89241 0.392857 0.0
-1.89334 0.448489 0.0
-1.85655 0.357143 0.0
-1.89614 0.653846 0.0
-1.89427 0.504121 0.0
-1.8952 0.559753 0.0
-1.89614 0.615385 0.0
-1.84937 0 0.0
-1.83264 0.0333333 0.0
-1.85655 0.107143 0.0
-1.81172 0.075 0.0
-1.89998 0.766667 0.0
-1.89089 0.709091 0.0
-1.87498 0.85 0.0
-1.85998 0.79 0.0
-1.88748 0.8125 0.0
-1.89998 1 0.0
-1.88748 0.9625 0.0
-1.86664 0.933333 0.0
-1.85712 0.892857 0.0
-1.87448 0.15 0.0
-1.86611 0.194444 0.0
-1.83264 0.133333 0.0
-1.83264 0.2625 0.0
-1.82068 0.321429 0.0
-1.85664 0.404762 0.0
-1.85674 0.452381 0.0
-1.85683 0.5 0.0
-1.81184 0.375 0.0
-1.85712 0.642857 0.0
-1.85693 0.547619 0.0
-1.85702 0.595238 0.0
-1.79917 0 0.0
-1.78482 0.0357143 0.0
-1.79917 0.116667 0.0
-1.76569 0.0666666 0.0
-1.85452 0.745455 0.0
-1.82689 0.692308 0.0
-1.81815 0.781818 0.0
-1.82497 0.825 0.0
-1.84997 1 0.0
-1.8333 0.958333 0.0
-1.81247 0.8875 0.0
-1.81247 0.925 0.0
-1.81742 0.218182 0.0
-1.82427 0.175 0.0
-1.77634 0.145455 0.0
-1.79144 0.242308 0.0
-1.78482 0.285714 0.0
-1.77469 0.332653 0.0
-1.81215 0.529762 0.0
-1.81194 0.422619 0.0
-1.81203 0.470238 0.0
-1.76714 0.392857 0.0
-1.81234 0.625 0.0
-1.79732 0.571429 0.0
-1.74896 0 0.0
-1.73222 0.0333333 0.0
-1.75398 0.105 0.0
-1.71883 0.07 0.0
-1.79227 0.730769 0.0
-1.78007 0.679121 0.0
-1.75765 0.769231 0.0
-1.78178 0.818182 0.0
-1.78996 0.86 0.0
-1.79996 1 0.0
-1.78568 0.964286 0.0
-1.76663 0.922222 0.0
-1.76569 0.1875 0.0
-1.73222 0.15 0.0
-1.74896 0.25 0.0
-1.73714 0.304762 0.0
-1.76743 0.537202 0.0
-1.72869 0.343878 0.0
-1.76732 0.485119 0.0
-1.76723 0.440476 0.0
-1.72243 0.410714 0.0
-1.76757 0.607143 0.0
-1.69875 0 0.0
-1.68369 0.035 0.0
-1.69875 0.1125 0.0
-1.66528 0.075 0.0
-1.74341 0.708974 0.0
-1.73324 0.665934 0.0
-1.70441 0.74478 0.0
-1.71423 0.785714 0.0
-1.72303 0.826923 0.0
-1.74541 0.854545 0.0
-1.74541 0.890909 0.0
-1.74996 1 0.0
-1.73745 0.9625 0.0
-1.71359 0.927273 0.0
-1.68716 0.153846 0.0
-1.7131 0.214286 0.0
-1.70725 0.275 0.0
-1.69712 0.321939 0.0
-1.72279 0.589286 0.0
-1.72261 0.5 0.0
-1.7227 0.544643 0.0
-1.6827 0.355102 0.0
-1.67773 0.428571 0.0
-1.70763 0.464286 0.0
-1.70369 0.62449 0.0
-1.64854 0 0.0
-1.63181 0.0375 0.0
-1.64137 0.142857 0.0
-1.61764 0.0769231 0.0
-1.69458 0.703846 0.0
-1.67471 0.657437 0.0
-1.66143 0.727637 0.0
-1.67125 0.768571 0.0
-1.67851 0.821429 0.0
-1.68841 0.861538 0.0
-1.70904 0.890909 0.0
-1.69995 1 0.0
-1.68176 0.963636 0.0
-1.67267 0.927273 0.0
-1.65427 0.187143 0.0
-1.66718 0.231429 0.0
-1.66554 0.3 0.0
-1.67802 0.571429 0.0
-1.67792 0.523809 0.0
-1.6367 0.366327 0.0
-1.63682 0.423469 0.0
-1.62568 0.502976 0.0
-1.6629 0.470238 0.0
-1.65254 0.618367 0.0
-1.6059 0.307143 0.0
-1.59833 0 0.0
-1.58288 0.0384615 0.0
-1.60563 0.169643 0.0
-1.58179 0.112271 0.0
-1.56964 0.0714286 0.0
-1.64574 0.690385 0.0
-1.62827 0.751429 0.0
-1.63371 0.791071 0.0
-1.64279 0.857143 0.0
-1.65378 0.896154 0.0
-1.64994 1 0.0
-1.6363 0.963636 0.0
-1.61916 0.930769 0.0
-1.61345 0.209107 0.0
-1.62126 0.248571 0.0
-1.56989 0.196429 0.0
-1.63324 0.553571 0.0
-1.58846 0.535714 0.0
-1.59408 0.361905 0.0
-1.59161 0.402211 0.0
-1.58832 0.464286 0.0
-1.61504 0.598581 0.0
-1.59683 0.64359 0.0
-1.57899 0.274107 0.0
-1.56176 0.322381 0.0
-1.54812 0 0.0
-1.53378 0.0357143 0.0
-1.54593 0.147619 0.0
-1.53385 0.0732143 0.0
-1.53393 0.110714 0.0
-1.58522 0.704286 0.0
-1.58709 0.745 0.0
-1.58896 0.785714 0.0
-1.60695 0.830357 0.0
-1.60707 0.892857 0.0
-1.59993 1 0.0
-1.58454 0.965385 0.0
-1.57135 0.928571 0.0
-1.55209 0.241071 0.0
-1.5291 0.198214 0.0
-1.56936 0.570918 0.0
-1.54369 0.517857 0.0
-1.5464 0.380952 0.0
-1.54564 0.427721 0.0
-1.54488 0.47449 0.0
-1.55026 0.606122 0.0
-1.54222 0.677143 0.0
-1.52943 0.282857 0.0
-1.52143 0.33619 0.0
-1.49792 0 0.0
-1.49802 0.05 0.0
-1.49822 0.15 0.0
-1.49312 0.1 0.0
-1.5423 0.717143 0.0
-1.54419 0.767857 0.0
-1.54727 0.819048 0.0
-1.57122 0.861905 0.0
-1.53553 0.914286 0.0
-1.54992 1 0.0
-1.53563 0.964286 0.0
-1.49842 0.25 0.0
-1.48831 0.2 0.0
-1.5214 0.558929 0.0
-1.49891 0.5 0.0
-1.49871 0.4 0.0
-1.47631 0.45 0.0
-1.49911 0.6 0.0
-1.49921 0.65 0.0
-1.49931 0.7 0.0
-1.48111 0.35 0.0
-1.48351 0.3 0.0
-1.44771 0 0.0
-1.44782 0.05 0.0
-1.44804 0.15 0.0
-1.44793 0.1 0.0
-1.49941 0.75 0.0
-1.49951 0.8 0.0
-1.49981 0.95 0.0
-1.49961 0.85 0.0
-1.49971 0.9 0.0
-1.49991 1 0.0
-1.44826 0.25 0.0
-1.43815 0.2 0.0
-1.47151 0.55 0.0
-1.44881 0.5 0.0
-1.44859 0.4 0.0
-1.42619 0.45 0.0
-1.44913 0.65 0.0
-1.44902 0.6 0.0
-1.44935 0.75 0.0
-1.44924 0.7 0.0
-1.43972 0.35 0.0
-1.43336 0.3 0.0
-1.3975 0 0.0
-1.39762 0.05 0.0
-1.39786 0.15 0.0
-1.39274 0.1 0.0
-1.44957 0.85 0.0
-1.44946 0.8 0.0
-1.4523 0.95 0.0
-1.44968 0.9 0.0
-1.4499 1 0.0
-1.3981 0.25 0.0
-1.38798 0.2 0.0
-1.42141 0.55 0.0
-1.3987 0.5 0.0
-1.39834 0.35 0.0
-1.37845 0.4 0.0
-1.37607 0.45 0.0
-1.40784 0.65 0.0
-1.39894 0.6 0.0
-1.41185 0.75 0.0
-1.39918 0.7 0.0
-1.38322 0.3 0.0
-1.34729 0 0.0
-1.34492 0.05 0.0
-1.34018 0.15 0.0
-1.34255 0.1 0.0
-1.40707 0.85 0.0
-1.39941 0.8 0.0
-1.39977 0.95 0.0
-1.39965 0.9 0.0
-1.39989 1 0.0
-1.33781 0.2 0.0
-1.33544 0.25 0.0
-1.37131 0.55 0.0
-1.34859 0.5 0.0
-1.33833 0.4 0.0
-1.3307 0.35 0.0
-1.32595 0.45 0.0
-1.34885 0.6 0.0
-1.36655 0.65 0.0
-1.36179 0.75 0.0
-1.34911 0.7 0.0
-1.33307 0.3 0.0
-1.29708 0 0.0
-1.29722 0.05 0.0
-1.2975 0.15 0.0
-1.29236 0.1 0.0
-1.35703 0.85 0.0
-1.34937 0.8 0.0
-1.34988 1 0.0
-1.34962 0.9 0.0
-1.35226 0.95 0.0
-1.28528 0.25 0.0
-1.28764 0.2 0.0
-1.28931 0.35 0.0
-1.32121 0.55 0.0
-1.29848 0.5 0.0
-1.28709 0.45 0.0
-1.2982 0.4 0.0
-1.29876 0.6 0.0
-1.31647 0.65 0.0
-1.29918 0.75 0.0
-1.29904 0.7 0.0
-1.28292 0.3 0.0
-1.24687 0 0.0
-1.24702 0.05 0.0
-1.24717 0.1 0.0
-1.24732 0.15 0.0
-1.29946 0.85 0.0
-1.29932 0.8 0.0
-1.29987 1 0.0
-1.29974 0.95 0.0
-1.30462 0.9 0.0
-1.24762 0.25 0.0
-1.23747 0.2 0.0
-1.24792 0.35 0.0
-1.22807 0.4 0.0
-1.27111 0.55 0.0
-1.24837 0.5 0.0
-1.24822 0.45 0.0
-1.24867 0.6 0.0
-1.26639 0.65 0.0
-1.26167 0.75 0.0
-1.24897 0.7 0.0
-1.23277 0.3 0.0
-1.19667 0 0.0
-1.19683 0.05 0.0
-1.18964 0.15 0.0
-1.19198 0.1 0.0
-1.25695 0.85 0.0
-1.24927 0.8 0.0
-1.25223 0.95 0.0
-1.24987 1 0.0
-1.24957 0.9 0.0
-1.1873 0.2 0.0
-1.18496 0.25 0.0
-1.18028 0.35 0.0
-1.17794 0.4 0.0
-1.1981 0.45 0.0
-1.19842 0.55 0.0
-1.19826 0.5 0.0
-1.19858 0.6 0.0
-1.19874 0.65 0.0
-1.19906 0.75 0.0
-1.1989 0.7 0.0
-1.18262 0.3 0.0
-1.14646 0 0.0
-1.14663 0.05 0.0
-1.1418 0.1 0.0
-1.13713 0.2 0.0
-1.14697 0.15 0.0
-1.20691 0.85 0.0
-1.20926 0.8 0.0
-1.20221 0.95 0.0
-1.19986 1 0.0
-1.20456 0.9 0.0
-1.13997 0.3 0.0
-1.14731 0.25 0.0
-1.13781 0.4 0.0
-1.13014 0.35 0.0
-1.12548 0.45 0.0
-1.14815 0.5 0.0
-1.15962 0.55 0.0
-1.14849 0.6 0.0
-1.15745 0.65 0.0
-1.16155 0.75 0.0
-1.14917 0.8 0.0
-1.14883 0.7 0.0
-1.09625 0 0.0
-1.09661 0.1 0.0
-1.09393 0.05 0.0
-1.09697 0.2 0.0
-1.08929 0.15 0.0
-1.15687 0.85 0.0
-1.14985 1 0.0
-1.15219 0.95 0.0
-1.14951 0.9 0.0
-1.09733 0.3 0.0
-1.08465 0.25 0.0
-1.09769 0.4 0.0
-1.08 0.35 0.0
-1.08661 0.45 0.0
-1.09804 0.5 0.0
-1.12082 0.55 0.0
-1.10916 0.8 0.0
-1.10629 0.7 0.0
-1.0984 0.6 0.0
-1.11616 0.65 0.0
-1.11149 0.75 0.0
-1.04604 0 0.0
-1.04623 0.05 0.0
-1.04642 0.1 0.0
-1.0468 0.2 0.0
-1.03911 0.15 0.0
-1.09948 0.9 0.0
-1.0993 0.85 0.0
-1.09984 1 0.0
-1.09966 0.95 0.0
-1.04718 0.3 0.0
-1.03449 0.25 0.0
-1.04756 0.4 0.0
-1.02986 0.35 0.0
-1.04775 0.45 0.0
-1.04794 0.5 0.0
-1.04813 0.55 0.0
-1.05911 0.8 0.0
-1.04831 0.6 0.0
-1.06376 0.7 0.0
-1.0485 0.65 0.0
-1.04888 0.75 0.0
-0.995833 0 0.0
-0.991231 0.1 0.0
-0.996033 0.05 0.0
-0.986629 0.2 0.0
-0.98893 0.15 0.0
-1.05447 0.9 0.0
-1.04926 0.85 0.0
-1.04983 1 0.0
-1.04964 0.95 0.0
-0.984328 0.25 0.0
-0.99703 0.3 0.0
-0.997429 0.4 0.0
-0.997628 0.45 0.0
-0.979726 0.35 0.0
-0.997827 0.5 0.0
-0.998027 0.55 0.0
-0.998226 0.6 0.0
-0.961416 0.475 0.0
-1.00907 0.8 0.0
-0.998426 0.65 0.0
-0.998625 0.7 0.0
-1.01138 0.75 0.0
-0.945625 0 0.0
-0.946044 0.1 0.0
-0.943334 0.05 0.0
-0.946463 0.2 0.0
-0.938752 0.15 0.0
-1.00444 0.9 0.0
-1.00675 0.85 0.0
-0.999821 1 0.0
-1.00213 0.95 0.0
-0.93417 0.25 0.0
-0.946881 0.3 0.0
-0.9473 0.4 0.0
-0.929588 0.35 0.0
-0.925005 0.45 0.0
-0.960371 0.525 0.0
-0.959325 0.575 0.0
-0.958279 0.625 0.0
-0.922714 0.5 0.0
-0.959017 0.8 0.0
-0.957233 0.675 0.0
-0.952999 0.7125 0.0
-0.948766 0.75 0.0
-0.895417 0 0.0
-0.895855 0.1 0.0
-0.893136 0.05 0.0
-0.896294 0.2 0.0
-0.888573 0.15 0.0
-0.949184 0.85 0.0
-0.954415 0.9 0.0
-0.949812 1 0.0
-0.949603 0.95 0.0
-0.884011 0.25 0.0
-0.896733 0.3 0.0
-0.874887 0.45 0.0
-0.879449 0.35 0.0
-0.897171 0.4 0.0
-0.920423 0.55 0.0
-0.918132 0.6 0.0
-0.915841 0.65 0.0
-0.872606 0.5 0.0
-0.908968 0.8 0.0
-0.91355 0.7 0.0
-0.898707 0.75 0.0
-0.845208 0 0.0
-0.845438 0.05 0.0
-0.845667 0.1 0.0
-0.845896 0.15 0.0
-0.833853 0.25 0.0
-0.846126 0.2 0.0
-0.899146 0.85 0.0
-0.904386 0.9 0.0
-0.899584 0.95 0.0
-0.899804 1 0.0
-0.838062 0.35 0.0
[...]
POINT_DATA 10839
VECTORS Velocity float
0.21 0 0.0
0.24 0 0.0
0.2275 0 0.0
0.2475 0 0.0
0.25 0 0.0
0.2475 0 0.0
0 0 0.0
0.0475 0 0.0
0.1275 0 0.0
0.09 0 0.0
0.09 0 0.0
0.1275 0 0.0
0.1875 0 0.0
0.16 0 0.0
0.195557 -2.4027e-05 0.0
0.242841 -3.28078e-05 0.0
0.215776 -2.86116e-05 0.0
0.231406 -3.22643e-05 0.0
0.248725 -3.4935e-05 0.0
0.24 0 0.0
0.24284 -3.27336e-05 0.0
0.24852 -3.36427e-05 0.0
0 0 0.0
0.0622239 -4.16994e-06 0.0
0.0322269 -2.75571e-06 0.0
0.16 0 0.0
0.1875 0 0.0
0.21 0 0.0
0.2275 0 0.0
0.193592 -2.69698e-05 0.0
0.138887 -1.49525e-05 0.0
0 0 0.0
0.0475 0 0.0
0.0998415 -1.03738e-05 0.0
0.0622206 -4.2166e-06 0.0
0.0998462 -1.08408e-05 0.0
0.138891 -1.50872e-05 0.0
0.17438 -3.78697e-05 0.0
0.201606 -5.19137e-05 0.0
0.235787 -6.34275e-05 0.0
0.244085 -6.63788e-05 0.0
0.223602 -8.50537e-05 0.0
0.249751 -6.93595e-05 0.0
0.249044 -7.72978e-05 0.0
0.231404 -3.27889e-05 0.0
0.244081 -6.55904e-05 0.0
0 0 0.0
0.036108 -5.34005e-06 0.0
0.0736127 -1.49429e-05 0.0
0.0622491 -1.6385e-05 0.0
0.17437 -3.73088e-05 0.0
0.220162 -5.19039e-05 0.0
0.201594 -5.19889e-05 0.0
0.115548 -2.23365e-05 0.0
0.146676 -3.46479e-05 0.0
0 0 0.0
0.0360874 -3.59316e-06 0.0
0.0693661 -1.16735e-05 0.0
0.0899835 -2.32038e-05 0.0
0.109391 -3.14142e-05 0.0
0.146692 -3.39809e-05 0.0
0.178902 -6.35633e-05 0.0
0.206293 -8.31809e-05 0.0
0.214501 -0.000112187 0.0
0.238527 -9.9502e-05 0.0
0.24735 -0.000103629 0.0
0.229607 -0.000126725 0.0
0.226323 -8.93761e-05 0.0
0.249983 -0.000104144 0.0
0.246426 -0.000101311 0.0
0.23668 -9.53667e-05 0.0
0 0 0.0
0.0322505 -6.04342e-06 0.0
0.0956966 -3.57027e-05 0.0
0.0694292 -2.69117e-05 0.0
0.178876 -6.25905e-05 0.0
0.206269 -8.38065e-05 0.0
0.127476 -4.82208e-05 0.0
0.165873 -7.92617e-05 0.0
0.152325 -5.66993e-05 0.0
0 0 0.0
0.0360797 -5.17181e-06 0.0
0.0621958 -1.62096e-05 0.0
0.09563 -3.6372e-05 0.0
0.127525 -4.86907e-05 0.0
0.156661 -7.08091e-05 0.0
0.115601 -5.59462e-05 0.0
0.193626 -0.00011699 0.0
0.218141 -0.000148158 0.0
0.24094 -0.000135055 0.0
0.247737 -0.000140082 0.0
0.25 -0.000141616 0.0
0.234398 -0.000171606 0.0
0.229576 -0.00012497 0.0
0.247727 -0.000139772 0.0
0.240919 -0.000134815 0.0
0 0 0.0
0.034487 -8.38155e-06 0.0
0.103121 -5.50025e-05 0.0
0.0623029 -2.72793e-05 0.0
0.189727 -9.93501e-05 0.0
0.212989 -0.000138949 0.0
0.170534 -0.000107642 0.0
0.144329 -7.98295e-05 0.0
0 0 0.0
0.0398982 -8.91972e-06 0.0
0.0997862 -4.9962e-05 0.0
0.0693213 -2.64647e-05 0.0
0.170624 -0.000107775 0.0
0.144421 -8.15589e-05 0.0
0.124377 -8.27702e-05 0.0
0.18365 -0.000136383 0.0
0.204132 -0.000163388 0.0
0.222038 -0.000192491 0.0
0.249109 -0.000186117 0.0
0.244027 -0.000181141 0.0
0.24912 -0.000186126 0.0
0.238551 -0.000218738 0.0
0.234353 -0.000170595 0.0
0.244883 -0.000196255 0.0
0 0 0.0
0.0322916 -8.88552e-06 0.0
0.0940742 -5.78679e-05 0.0
0.0652172 -3.45631e-05 0.0
0.196696 -0.000149172 0.0
0.217871 -0.000183417 0.0
0.177437 -0.000151485 0.0
0.14869 -0.00010555 0.0
0.120329 -7.38072e-05 0.0
0 0 0.0
0.034391 -8.46085e-06 0.0
0.0716443 -3.46487e-05 0.0
0.152424 -0.00011846 0.0
0.127615 -0.00010293 0.0
0.187578 -0.000169361 0.0
0.211951 -0.000211121 0.0
0.248605 -0.000231295 0.0
0.225686 -0.000239301 0.0
0.249783 -0.000232977 0.0
0.246474 -0.000229038 0.0
0.242064 -0.000268315 0.0
0.23849 -0.000218121 0.0
0 0 0.0
0.0338739 -1.11523e-05 0.0
0.0999933 -7.7447e-05 0.0
0.069545 -4.60941e-05 0.0
0.20626 -0.000197607 0.0
0.222404 -0.000230483 0.0
0.189975 -0.000205492 0.0
0.168253 -0.000165831 0.0
0.143003 -0.000127086 0.0
0.124194 -9.36555e-05 0.0
0.0970839 -6.2837e-05 0.0
0 0 0.0
0.0360212 -1.07918e-05 0.0
0.067315 -3.71703e-05 0.0
0.130335 -0.000124572 0.0
0.168483 -0.000166649 0.0
0.199473 -0.000217574 0.0
0.218379 -0.000255498 0.0
0.241992 -0.000268975 0.0
0.25 -0.000280802 0.0
0.247989 -0.00027752 0.0
0.229082 -0.000288447 0.0
0.244938 -0.000319884 0.0
0.248741 -0.000294764 0.0
0.234445 -0.000275688 0.0
0 0 0.0
0.0362321 -1.43982e-05 0.0
0.122659 -0.00012776 0.0
0.0712294 -5.45957e-05 0.0
0.208349 -0.000242017 0.0
0.225126 -0.000288267 0.0
0.198047 -0.000251448 0.0
0.177725 -0.000208081 0.0
0.146525 -0.000153285 0.0
0.119132 -0.000106951 0.0
0.097051 -7.13554e-05 0.0
0 0 0.0
0.0349391 -1.2094e-05 0.0
0.0672777 -4.18928e-05 0.0
0.152302 -0.000174417 0.0
0.178018 -0.000213016 0.0
0.210117 -0.000269651 0.0
0.244858 -0.000319809 0.0
0.24942 -0.000328555 0.0
0.232226 -0.000339714 0.0
0.244197 -0.000364273 0.0
0.249989 -0.000388946 0.0
0.249132 -0.000345326 0.0
0.235912 -0.000330595 0.0
0.212964 -0.000329757 0.0
0 0 0.0
0.0371609 -1.69818e-05 0.0
0.141111 -0.000178088 0.0
0.0999586 -0.000107551 0.0
0.0666 -5.32391e-05 0.0
0.213628 -0.000294858 0.0
0.186606 -0.000256683 0.0
0.165083 -0.000208773 0.0
0.12224 -0.000128431 0.0
0.0928655 -7.83537e-05 0.0
0 0 0.0
0.0349095 -1.35155e-05 0.0
0.0642265 -4.45229e-05 0.0
0.165598 -0.000223274 0.0
0.186969 -0.000262466 0.0
0.158125 -0.000233785 0.0
0.247091 -0.000374147 0.0
0.248691 -0.000430443 0.0
0.231053 -0.000381804 0.0
0.240526 -0.000407524 0.0
0.248758 -0.000430074 0.0
0.240202 -0.000380677 0.0
0.229255 -0.000374138 0.0
0.199183 -0.000322936 0.0
0.218635 -0.000386194 0.0
0 0 0.0
0.0346486 -1.66698e-05 0.0
0.126172 -0.000173205 0.0
0.0681788 -6.02096e-05 0.0
0.0988212 -0.000117215 0.0
0.208081 -0.000337698 0.0
0.189758 -0.000294334 0.0
0.168124 -0.000244206 0.0
0.140618 -0.000176729 0.0
0.095408 -9.33136e-05 0.0
0 0 0.0
0.0332536 -1.38417e-05 0.0
0.0660556 -5.30569e-05 0.0
0.183225 -0.000305231 0.0
0.159265 -0.000261836 0.0
0.244898 -0.000443939 0.0
0.24966 -0.00048754 0.0
0.235962 -0.000447166 0.0
0.244859 -0.000472682 0.0
0.249378 -0.000486312 0.0
0.238619 -0.000449638 0.0
0.218419 -0.000406394 0.0
0.203106 -0.000377108 0.0
0.223372 -0.000441835 0.0
0 0 0.0
0.0478059 -3.33253e-05 0.0
0.127924 -0.000197636 0.0
0.0904259 -0.000110067 0.0
0.202606 -0.000363253 0.0
0.177964 -0.000298665 0.0
0.147885 -0.000223985 0.0
0.118718 -0.000146687 0.0
0.078026 -7.83263e-05 0.0
0 0 0.0
0.0342319 -1.63181e-05 0.0
0.187834 -0.000361696 0.0
0.160404 -0.000291518 0.0
0.246451 -0.000507657 0.0
0.25 -0.000547134 0.0
0.240141 -0.0005166 0.0
0.247577 -0.000569707 0.0
0.239858 -0.000516227 0.0
0.22729 -0.00047796 0.0
0.209727 -0.000425168 0.0
0.227726 -0.000501679 0.0
0.210292 -0.000443054 0.0
0 0 0.0
0.0478695 -3.7176e-05 0.0
0.128019 -0.00022077 0.0
0.0905086 -0.000121064 0.0
0.187167 -0.000359835 0.0
0.159615 -0.000281942 0.0
0.0471981 -3.26585e-05 0.0
0.12708 -0.000194902 0.0
0.0895871 -0.00010771 0.0
0 0 0.0
0.187911 -0.000406701 0.0
0.160495 -0.000326451 0.0
0.247419 -0.000576264 0.0
0.249999 -0.00061677 0.0
0.240174 -0.000582697 0.0
0.247595 -0.000640756 0.0
0.227243 -0.000538459 0.0
0.239825 -0.000581622 0.0
0.18709 -0.000404486 0.0
0.209663 -0.000478652 0.0
0.227767 -0.000550968 0.0
0.210358 -0.000498256 0.0
0 0 0.0
0.0479396 -4.07786e-05 0.0
0.128127 -0.000245571 0.0
0.0906209 -0.000135814 0.0
0.126984 -0.000218518 0.0
0.159527 -0.000316523 0.0
0.0471387 -3.62184e-05 0.0
0.0894966 -0.000119754 0.0
0 0 0.0
0.187998 -0.000454386 0.0
0.160598 -0.000364064 0.0
0.247402 -0.000647108 0.0
0.249999 -0.000691278 0.0
0.227811 -0.000604598 0.0
0.240225 -0.000681861 0.0
0.247614 -0.000717388 0.0
0.227197 -0.000589765 0.0
0.239789 -0.000651834 0.0
0.187026 -0.000438826 0.0
0.209591 -0.000535729 0.0
0.210432 -0.00055719 0.0
0 0 0.0
0.0480219 -4.53541e-05 0.0
0.128266 -0.000276331 0.0
0.0907354 -0.000150052 0.0
0.126895 -0.000238764 0.0
0.159427 -0.000352594 0.0
0.0470665 -4.02263e-05 0.0
0.0893965 -0.000132223 0.0
0 0 0.0
0.160712 -0.000403982 0.0
0.188122 -0.000518261 0.0
0.247381 -0.000723049 0.0
0.249999 -0.000771263 0.0
0.24026 -0.000744766 0.0
0.227896 -0.000699568 0.0
0.247635 -0.000798668 0.0
0.239747 -0.000726652 0.0
0.227149 -0.00064573 0.0
0.186932 -0.000488305 0.0
0.209511 -0.000596411 0.0
0.210515 -0.000620904 0.0
0 0 0.0
0.0481046 -5.00389e-05 0.0
0.128381 -0.000301365 0.0
0.0908617 -0.000165588 0.0
0.126778 -0.000264278 0.0
0.159316 -0.000391558 0.0
0 0 0.0
0.0892846 -0.000146235 0.0
0.0469937 -4.41946e-05 0.0
0.188234 -0.000576579 0.0
0.16084 -0.000447895 0.0
0.227955 -0.000762926 0.0
0.247359 -0.000805394 0.0
0.249998 -0.000857917 0.0
0.247654 -0.000867226 0.0
0.240298 -0.00081054 0.0
0.2397 -0.000807737 0.0
0.227082 -0.000718234 0.0
0.186797 -0.00055504 0.0
0.209421 -0.000662761 0.0
0.210608 -0.000688986 0.0
0 0 0.0
0.0481989 -5.51748e-05 0.0
0.0909871 -0.00018048 0.0
0.128528 -0.000332534 0.0
0.126628 -0.000296033 0.0
0.159191 -0.000433397 0.0
0 0 0.0
0.0469065 -4.85903e-05 0.0
0.0891749 -0.000159137 0.0
0.188328 -0.00062198 0.0
0.160983 -0.000495619 0.0
0.228017 -0.000830967 0.0
0.24037 -0.000936599 0.0
0.247333 -0.000894693 0.0
0.249997 -0.000951299 0.0
0.247675 -0.000939382 0.0
0.239647 -0.000895497 0.0
0.227008 -0.000796899 0.0
0.186707 -0.000599129 0.0
0.209321 -0.000733475 0.0
0.210712 -0.000763599 0.0
0 0 0.0
0.0483038 -6.05938e-05 0.0
0.128719 -0.000373245 0.0
0.0911564 -0.000201661 0.0
0.126504 -0.00032172 0.0
0.159053 -0.000478669 0.0
0.0468194 -5.27472e-05 0.0
0 0 0.0
0.0890271 -0.000176513 0.0
0.161141 -0.000547625 0.0
0.188498 -0.00070424 0.0
0.228135 -0.000952425 0.0
0.240431 -0.0010383 0.0
0.247702 -0.00104094 0.0
0.247291 -0.00103533 0.0
0.249996 -0.00105462 0.0
0.239589 -0.00099299 0.0
0.226894 -0.000911859 0.0
0.186541 -0.000677651 0.0
0.209209 -0.000811692 0.0
0.210826 -0.000844301 0.0
0 0 0.0
0.0484181 -6.65248e-05 0.0
0.0913263 -0.000221297 0.0
0.161316 -0.000602824 0.0
0.128875 -0.000404866 0.0
0.126345 -0.000354077 0.0
0.158931 -0.00051759 0.0
0.0467182 -5.81855e-05 0.0
0 0 0.0
0.088892 -0.000192354 0.0
0.210934 -0.000919167 0.0
0.188614 -0.000760133 0.0
0.240483 -0.00112416 0.0
0.228233 -0.00105531 0.0
0.247749 -0.00120166 0.0
0.249995 -0.00116572 0.0
0.247265 -0.00111912 0.0
0.239524 -0.00109718 0.0
0.226816 -0.00098976 0.0
0.186429 -0.000729465 0.0
0.158729 -0.000581778 0.0
0.209085 -0.000895433 0.0
0 0 0.0
0.0914966 -0.000242093 0.0
0.0485528 -7.40414e-05 0.0
0.161469 -0.000653475 0.0
0.129106 -0.000454422 0.0
0.126169 -0.000389791 0.0
0 0 0.0
0.0466074 -6.38328e-05 0.0
0.0887122 -0.00021321 0.0
0.211052 -0.000998595 0.0
0.188823 -0.0008616 0.0
0.240539 -0.00121655 0.0
0.228341 -0.00116651 0.0
0.247776 -0.00130046 0.0
0.249993 -0.0012883 0.0
0.247237 -0.00121119 0.0
0.15858 -0.000626093 0.0
0.208968 -0.000972663 0.0
0.23945 -0.00121003 0.0
0.22673 -0.00107456 0.0
0.186267 -0.000804495 0.0
0 0 0.0
0.0486856 -8.08474e-05 0.0
0.0917 -0.000266303 0.0
0.16168 -0.000719952 0.0
0.129332 -0.000501343 0.0
0.0885303 -0.000233351 0.0
0.125944 -0.000434524 0.0
0 0 0.0
0.0464801 -7.04094e-05 0.0
0.211203 -0.00110214 0.0
0.189014 -0.000951601 0.0
0.240617 -0.00134307 0.0
0.228461 -0.0012887 0.0
0.247806 -0.00140609 0.0
0.249993 -0.00142354 0.0
0.247178 -0.00139471 0.0
0.158378 -0.000688402 0.0
0.239371 -0.00133595 0.0
0.208842 -0.0010538 0.0
0.226575 -0.00122748 0.0
0.18604 -0.000910281 0.0
0 0 0.0
0.09195 -0.000296551 0.0
0.0488392 -8.90412e-05 0.0
0.161959 -0.000808934 0.0
0.12958 -0.000552956 0.0
0.0883521 -0.000253836 0.0
0.125726 -0.000478535 0.0
0 0 0.0
0.0463457 -7.73595e-05 0.0
0.189223 -0.00105156 0.0
0.211371 -0.0012171 0.0
0.240703 -0.00148427 0.0
0.247849 -0.00154955 0.0
0.228593 -0.00142241 0.0
0.24999 -0.00156845 0.0
0.247133 -0.00154182 0.0
0.239282 -0.00147124 0.0
0.249559 -0.00168143 0.0
0.158152 -0.000756729 0.0
0.226444 -0.00135399 0.0
0.208625 -0.00119478 0.0
0.185889 -0.000978272 0.0
0 0 0.0
0.0921789 -0.000324324 0.0
0.0490195 -9.92664e-05 0.0
0.162169 -0.000876145 0.0
0.129854 -0.00060991 0.0
0.0881358 -0.000278464 0.0
0.125524 -0.000518739 0.0
0 0 0.0
0.0462068 -8.45672e-05 0.0
0.189454 -0.00116074 0.0
0.211557 -0.00134399 0.0
0.240793 -0.00163636 0.0
0.22874 -0.00157204 0.0
0.247915 -0.00178865 0.0
0.249164 -0.00168103 0.0
0.243771 -0.00163132 0.0
0.233389 -0.00153214 0.0
0.249984 -0.00181899 0.0
0.157906 -0.000831731 0.0
0.218021 -0.00138737 0.0
0.203214 -0.00125459 0.0
0.185614 -0.00110091 0.0
0 0 0.0
0.0924532 -0.000357738 0.0
0.0492067 -0.000108893 0.0
0.162451 -0.000967635 0.0
0.130158 -0.000673718 0.0
0.125224 -0.00057811 0.0
0.0878974 -0.000305989 0.0
0 0 0.0
0.0460393 -9.25607e-05 0.0
0.18971 -0.00128238 0.0
0.211762 -0.00148438 0.0
0.247964 -0.00197141 0.0
0.2289 -0.00173571 0.0
0.2409 -0.00180732 0.0
0.24705 -0.00179581 0.0
0.239118 -0.00171869 0.0
0.226197 -0.00158896 0.0
0.249976 -0.00200559 0.0
0.157632 -0.000915458 0.0
0.208297 -0.00140745 0.0
0.185364 -0.00121192 0.0
0 0 0.0
0.0494039 -0.000119413 0.0
0.092757 -0.000395699 0.0
0.130441 -0.00073287 0.0
0.189992 -0.00141509 0.0
0.162765 -0.00106908 0.0
0.124934 -0.000635273 0.0
0.087635 -0.000336448 0.0
0.0458614 -0.000101705 0.0
0 0 0.0
0.229045 -0.00188498 0.0
0.211989 -0.00164185 0.0
0.248009 -0.00212966 0.0
0.241012 -0.00199812 0.0
0.226025 -0.00174844 0.0
0.246985 -0.00197848 0.0
0.238997 -0.0018928 0.0
0.249971 -0.00221124 0.0
0.185094 -0.00133157 0.0
0.15727 -0.00102352 0.0
0.208003 -0.00159299 0.0
0 0 0.0
0.0496328 -0.000132564 0.0
0.0931299 -0.000441872 0.0
0.130805 -0.000809066 0.0
0.190223 -0.00152931 0.0
0.163184 -0.00121077 0.0
0.124617 -0.000697114 0.0
0.0873187 -0.000373103 0.0
0.0456682 -0.000111311 0.0
0 0 0.0
0.124266 -0.00076723 0.0
0.229201 -0.00204159 0.0
0.212317 -0.00187551 0.0
0.241187 -0.00229951 0.0
0.248054 -0.00229706 0.0
0.225766 -0.00198796 0.0
0.238868 -0.0020823 0.0
0.246916 -0.00218149 0.0
0.249958 -0.00243804 0.0
0.184794 -0.00146311 0.0
0.156933 -0.00112817 0.0
0.207752 -0.00175512 0.0
0 0 0.0
0.0498855 -0.000146447 0.0
0.0935077 -0.000489662 0.0
0.13121 -0.000896496 0.0
0.190561 -0.00169033 0.0
0.16358 -0.00134298 0.0
0.0454517 -0.000123538 0.0
0.0869964 -0.000411332 0.0
0 0 0.0
0.123943 -0.00082949 0.0
0.229409 -0.00226154 0.0
0.212603 -0.002078 0.0
0.241328 -0.00254089 0.0
0.248113 -0.0025387 0.0
0.225584 -0.00215226 0.0
0.238725 -0.00229063 0.0
0.249946 -0.00268978 0.0
0.246799 -0.0025107 0.0
0.184548 -0.00156725 0.0
0.156563 -0.00123972 0.0
0.207474 -0.00192732 0.0
0 0 0.0
0.0501632 -0.000161684 0.0
0.0939238 -0.000541891 0.0
0.131727 -0.00100835 0.0
0.191029 -0.0019212 0.0
0.212914 -0.00230601 0.0
0.164013 -0.00149275 0.0
0.0452301 -0.000135143 0.0
0.0866463 -0.000451918 0.0
0 0 0.0
0.123529 -0.000910793 0.0
0.229717 -0.00258956 0.0
0.241447 -0.00275825 0.0
0.248179 -0.00280518 0.0
0.24993 -0.00289803 0.0
0.225393 -0.0023246 0.0
0.238557 -0.00252368 0.0
0.246703 -0.00276547 0.0
0.156158 -0.00136225 0.0
0.184196 -0.00172054 0.0
0.207167 -0.00211542 0.0
0 0 0.0
0.0504926 -0.000181226 0.0
0.094391 -0.000604623 0.0
0.132236 -0.00112485 0.0
0.191346 -0.00208246 0.0
0.213256 -0.00255651 0.0
0.164497 -0.00166146 0.0
0.0449724 -0.000148161 0.0
0.0862607 -0.000496431 0.0
0 0 0.0
0.155807 -0.00146042 0.0
0.08584 -0.000542538 0.0
0.123004 -0.00101117 0.0
0.229974 -0.00288392 0.0
0.241572 -0.00298372 0.0
0.248275 -0.00324198 0.0
0.249917 -0.00311647 0.0
0.246621 -0.00298238 0.0
0.225136 -0.00255086 0.0
0.238301 -0.00288366 0.0
0.183703 -0.00192709 0.0
0.206882 -0.00229355 0.0
0.230204 -0.00313662 0.0
0 0 0.0
0.0508412 -0.000202365 0.0
0.132802 -0.00125853 0.0
0.094911 -0.000677752 0.0
0.213636 -0.0028479 0.0
0.191918 -0.00238065 0.0
0.165032 -0.00185364 0.0
0.0446772 -0.000162786 0.0
0 0 0.0
0.183377 -0.00206588 0.0
0.15533 -0.00159899 0.0
0.122497 -0.00110839 0.0
0.0443627 -0.000179842 0.0
0.085376 -0.000595104 0.0
0.241745 -0.00330685 0.0
0.248328 -0.00350742 0.0
0.249883 -0.00343849 0.0
0.249855 -0.0037058 0.0
0.246526 -0.00321224 0.0
0.224844 -0.00280142 0.0
0.238078 -0.00317094 0.0
0.20657 -0.0024728 0.0
0.23044 -0.00341807 0.0
0.0512148 -0.000227219 0.0
0 0 0.0
0.133333 -0.00138525 0.0
0.0954902 -0.000760136 0.0
0.214047 -0.00317332 0.0
0.192303 -0.00258881 0.0
0.165629 -0.00207616 0.0
0 0 0.0
0.182909 -0.00225184 0.0
0.154698 -0.00177251 0.0
0.122036 -0.00118762 0.0
0.0440416 -0.000195577 0.0
0.0848733 -0.000649011 0.0
0.241994 -0.0038241 0.0
0.248383 -0.0037864 0.0
0.249815 -0.00398654 0.0
0.246326 -0.0036824 0.0
0.224527 -0.00306785 0.0
0.237839 -0.00348188 0.0
0.206042 -0.00278035 0.0
0.230763 -0.00380656 0.0
0 0 0.0
0.0516524 -0.000258028 0.0
0.134024 -0.00156016 0.0
0.09608 -0.000849613 0.0
0.166289 -0.00232797 0.0
0.214499 -0.00354713 0.0
0.193004 -0.00297582 0.0
0 0 0.0
0 0 0.0
0.182389 -0.00245542 0.0
0.154115 -0.00193088 0.0
0.121445 -0.00129192 0.0
0.0843271 -0.000705086 0.0
0.0436731 -0.000212021 0.0
0.242188 -0.00424486 0.0
0.248443 -0.00419158 0.0
0.23762 -0.00374922 0.0
0.249753 -0.00439501 0.0
0.246151 -0.00405598 0.0
0.224167 -0.00336115 0.0
0.20558 -0.00303283 0.0
0.242343 -0.00462212 0.0
0.231092 -0.00424329 0.0
0.0521433 -0.000290949 0.0
0.0968038 -0.000958247 0.0
0.134803 -0.00176855 0.0
0.166874 -0.00256714 0.0
0.214994 -0.00396703 0.0
0.193469 -0.00325772 0.0
0 0 0.0
0 0 0.0
0.153614 -0.00205195 0.0
0.181673 -0.00271667 0.0
0.0837959 -0.000753702 0.0
0.120705 -0.00141252 0.0
0.0432715 -0.000230957 0.0
0.248527 -0.00484049 0.0
0.249661 -0.00485074 0.0
0.205074 -0.00330122 0.0
0.237376 -0.00402803 0.0
0.246001 -0.00436933 0.0
0.223615 -0.00378447 0.0
0.242507 -0.00501719 0.0
0.231593 -0.00492189 0.0
0.215523 -0.00444984 0.0
0.052739 -0.000334111 0.0
0.0976292 -0.00109722 0.0
0.135815 -0.00205199 0.0
0.167677 -0.0028969 0.0
0.194317 -0.00378238 0.0
0 0 0.0
0 0 0.0
0.152793 -0.00224526 0.0
0.181031 -0.00294514 0.0
0.0831004 -0.000816199 0.0
0.120004 -0.00151744 0.0
0.0428219 -0.000248333 0.0
0.245827 -0.0047028 0.0
0.249547 -0.00534057 0.0
0.248556 -0.00536665 0.0
0.204512 -0.00358333 0.0
0.23704 -0.00441115 0.0
0.223145 -0.00413653 0.0
0.180328 -0.00317733 0.0
0.242778 -0.00581362 0.0
0 0 0.0
0.231962 -0.00551698 0.0
0.195072 -0.00428399 0.0
0.216089 -0.0049945 0.0
0.0533672 -0.000386053 0.0
0.136667 -0.00230994 0.0
0.0986783 -0.00129025 0.0
0.168751 -0.00339331 0.0
0 0 0.0
0 0 0.0
0 0 0.0
0 0 0.0
0 0 0.0
0.0423846 -0.000263014 0.0
0.119245 -0.00162538 0.0
0.152039 -0.00241396 0.0
0.0824876 -0.00086758 0.0
0.245565 -0.00515355 0.0
0.249392 -0.00588287 0.0
0.248576 -0.00594524 0.0
0.222712 -0.00442463 0.0
0.203883 -0.00388025 0.0
0.236474 -0.00498879 0.0
0.203298 -0.00414039 0.0
0.179752 -0.00334998 0.0
0.242953 -0.00647735 0.0
0.232354 -0.00616855 0.0
0 0 0.0
9.00484e-05 -4.09917e-05 0.0
0 0 0.0
-0.000231961 0.00102808 0.0
0.2167 -0.00562715 0.0
0.195689 -0.0047061 0.0
0.0541632 -0.000456809 0.0
0.13778 -0.00265871 0.0
0.09978 -0.00150617 0.0
0.169773 -0.00389057 0.0
0 0 0.0
0 0 0.0
0 0 0.0
-0.000159507 0.000441059 0.0
1.34455e-05 -0.000166023 0.0
0.000102492 -0.000118774 0.0
0 0 0.0
0.041891 -0.000280783 0.0
0.118562 -0.00171114 0.0
0.151221 -0.00257908 0.0
0.0816944 -0.00092687 0.0
0.24526 -0.00565404 0.0
0.24919 -0.00647304 0.0
0.248559 -0.00657703 0.0
0.222235 -0.00473478 0.0
0.236102 -0.00535782 0.0
0.202654 -0.00440169 0.0
0.178707 -0.00364289 0.0
0.243119 -0.00720505 0.0
0.235788 -0.00694983 0.0
0.225602 -0.00654819 0.0
0 0 0.0
0.000181729 -2.92798e-05 0.0
0 0 0.0
0 0 0.0
-0.000855376 0.00261532 0.0
-0.000759901 0.0015402 0.0
0.212538 -0.00603802 0.0
0.196555 -0.00535451 0.0
0.100923 -0.00174509 0.0
0.0550188 -0.000547487 0.0
0.139037 -0.003091 0.0
0.170885 -0.00447747 0.0
0 0 0.0
-0.00019739 7.04832e-05 0.0
-0.000465336 0.000632179 0.0
-5.35511e-05 -6.77505e-05 0.0
5.23474e-05 1.47742e-05 0.0
0 0 0.0
0.04137 -0.000297366 0.0
0.117706 -0.00181019 0.0
0.15034 -0.00273505 0.0
0.0809229 -0.000979052 0.0
0.24489 -0.00618805 0.0
0.248938 -0.00711202 0.0
0.248501 -0.00727075 0.0
0.221347 -0.00527513 0.0
0.235679 -0.00573133 0.0
0.201816 -0.00472728 0.0
0.149384 -0.00290109 0.0
0.177773 -0.00388716 0.0
0.243227 -0.00783585 0.0
0.232996 -0.00744738 0.0
0.217795 -0.00693181 0.0
0 0 0.0
0.000131563 4.35004e-05 0.0
0 0 0.0
0 0 0.0
0 0 0.0
0 0 0.0
-0.00130937 0.00167772 0.0
-0.000263689 0.0024046 0.0
-0.000918957 0.003589 0.0
-0.00209127 0.00482083 0.0
-0.00166048 0.00307972 0.0
0 0 0.0
-9.78849e-05 0.00423071 0.0
0.197714 -0.00633729 0.0
0.171854 -0.00504794 0.0
0 0 0.0
0.0561428 -0.000679178 0.0
0.102383 -0.00208682 0.0
0.140686 -0.00375405 0.0
0 0 0.0
0 0 0.0
-0.000681314 0.000655149 0.0
-0.000405888 0.000327848 0.0