# vtk DataFile Version 3.0
Mesh NS-CD Problem
ASCII
DATASET UNSTRUCTURED_GRID
POINTS 10839 float
-2 0.3 0.0
-2 0.4 0.0
-2 0.35 0.0
-2 0.45 0.0
-2 0.5 0.0
-2 0.55 0.0
-2 0 0.0
-2 0.05 0.0
-2 0.85 0.0
-2 0.9 0.0
-2 0.1 0.0
-2 0.15 0.0
-2 0.25 0.0
-2 0.2 0.0
-1.96653 0.266667 0.0
-1.96524 0.415385 0.0
-1.96485 0.315 0.0
-1.96348 0.363636 0.0
-1.96414 0.464286 0.0
-2 0.6 0.0
-1.96538 0.584615 0.0
-1.96538 0.538462 0.0
-1.94979 0 0.0
-1.96653 0.0666666 0.0
-1.93306 0.0333333 0.0
-2 0.8 0.0
-2 0.75 0.0
-2 0.7 0.0
-2 0.65 0.0
-1.96249 0.7375 0.0
-1.96666 0.833333 0.0
-2 1 0.0
-2 0.95 0.0
-1.96249 0.8875 0.0
-1.96666 0.933333 0.0
-1.96234 0.1125 0.0
-1.96653 0.166667 0.0
-1.93724 0.225 0.0
-1.92971 0.28 0.0
-1.93048 0.380769 0.0
-1.93048 0.423077 0.0
-1.89958 0.3375 0.0
-1.9292 0.484203 0.0
-1.92117 0.530907 0.0
-1.96363 0.636364 0.0
-1.93076 0.576923 0.0
-1.89958 0 0.0
-1.88703 0.0375 0.0
-1.90963 0.08 0.0
-1.86611 0.0666666 0.0
-1.93749 0.775 0.0
-1.93635 0.672727 0.0
-1.92999 0.72 0.0
-1.93332 0.866667 0.0
-1.92856 0.821429 0.0
-1.94999 1 0.0
-1.92499 0.9625 0.0
-1.92499 0.925 0.0
-1.89998 0.9 0.0
-1.89958 0.125 0.0
-1.92827 0.178571 0.0
-1.89958 0.233333 0.0
-1.89045 0.290909 0.0
-1.86096 0.311538 0.0
-1.89241 0.392857 0.0
-1.89334 0.448489 0.0
-1.85655 0.357143 0.0
-1.89614 0.653846 0.0
-1.89427 0.504121 0.0
-1.8952 0.559753 0.0
-1.89614 0.615385 0.0
-1.84937 0 0.0
-1.83264 0.0333333 0.0
-1.85655 0.107143 0.0
-1.81172 0.075 0.0
-1.89998 0.766667 0.0
-1.89089 0.709091 0.0
-1.87498 0.85 0.0
-1.85998 0.79 0.0
-1.88748 0.8125 0.0
-1.89998 1 0.0
-1.88748 0.9625 0.0
-1.86664 0.933333 0.0
-1.85712 0.892857 0.0
-1.87448 0.15 0.0
-1.86611 0.194444 0.0
-1.83264 0.133333 0.0
-1.83264 0.2625 0.0
-1.82068 0.321429 0.0
-1.85664 0.404762 0.0
-1.85674 0.452381 0.0
-1.85683 0.5 0.0
-1.81184 0.375 0.0
-1.85712 0.642857 0.0
-1.85693 0.547619 0.0
-1.85702 0.595238 0.0
-1.79917 0 0.0
-1.78482 0.0357143 0.0
-1.79917 0.116667 0.0
-1.76569 0.0666666 0.0
-1.85452 0.745455 0.0
-1.82689 0.692308 0.0
-1.81815 0.781818 0.0
-1.82497 0.825 0.0
-1.84997 1 0.0
-1.8333 0.958333 0.0
-1.81247 0.8875 0.0
-1.81247 0.925 0.0
-1.81742 0.218182 0.0
-1.82427 0.175 0.0
-1.77634 0.145455 0.0
-1.79144 0.242308 0.0
-1.78482 0.285714 0.0
-1.77469 0.332653 0.0
-1.81215 0.529762 0.0
-1.81194 0.422619 0.0
-1.81203 0.470238 0.0
-1.76714 0.392857 0.0
-1.81234 0.625 0.0
-1.79732 0.571429 0.0
-1.74896 0 0.0
-1.73222 0.0333333 0.0
-1.75398 0.105 0.0
-1.71883 0.07 0.0
-1.79227 0.730769 0.0
-1.78007 0.679121 0.0
-1.75765 0.769231 0.0
-1.78178 0.818182 0.0
-1.78996 0.86 0.0
-1.79996 1 0.0
-1.78568 0.964286 0.0
-1.76663 0.922222 0.0
-1.76569 0.1875 0.0
-1.73222 0.15 0.0
-1.74896 0.25 0.0
-1.73714 0.304762 0.0
-1.76743 0.537202 0.0
-1.72869 0.343878 0.0
-1.76732 0.485119 0.0
-1.76723 0.440476 0.0
-1.72243 0.410714 0.0
-1.76757 0.607143 0.0
-1.69875 0 0.0
-1.68369 0.035 0.0
-1.69875 0.1125 0.0
-1.66528 0.075 0.0
-1.74341 0.708974 0.0
-1.73324 0.665934 0.0
-1.70441 0.74478 0.0
-1.71423 0.785714 0.0
-1.72303 0.826923 0.0
-1.74541 0.854545 0.0
-1.74541 0.890909 0.0
-1.74996 1 0.0
-1.73745 0.9625 0.0
-1.71359 0.927273 0.0
-1.68716 0.153846 0.0
-1.7131 0.214286 0.0
-1.70725 0.275 0.0
-1.69712 0.321939 0.0
-1.72279 0.589286 0.0
-1.72261 0.5 0.0
-1.7227 0.544643 0.0
-1.6827 0.355102 0.0
-1.67773 0.428571 0.0
-1.70763 0.464286 0.0
-1.70369 0.62449 0.0
-1.64854 0 0.0
-1.63181 0.0375 0.0
-1.64137 0.142857 0.0
-1.61764 0.0769231 0.0
-1.69458 0.703846 0.0
-1.67471 0.657437 0.0
-1.66143 0.727637 0.0
-1.67125 0.768571 0.0
-1.67851 0.821429 0.0
-1.68841 0.861538 0.0
-1.70904 0.890909 0.0
-1.69995 1 0.0
-1.68176 0.963636 0.0
-1.67267 0.927273 0.0
-1.65427 0.187143 0.0
-1.66718 0.231429 0.0
-1.66554 0.3 0.0
-1.67802 0.571429 0.0
-1.67792 0.523809 0.0
-1.6367 0.366327 0.0
-1.63682 0.423469 0.0
-1.62568 0.502976 0.0
-1.6629 0.470238 0.0
-1.65254 0.618367 0.0
-1.6059 0.307143 0.0
-1.59833 0 0.0
-1.58288 0.0384615 0.0
-1.60563 0.169643 0.0
-1.58179 0.112271 0.0
-1.56964 0.0714286 0.0
-1.64574 0.690385 0.0
-1.62827 0.751429 0.0
-1.63371 0.791071 0.0
-1.64279 0.857143 0.0
-1.65378 0.896154 0.0
-1.64994 1 0.0
-1.6363 0.963636 0.0
-1.61916 0.930769 0.0
-1.61345 0.209107 0.0
-1.62126 0.248571 0.0
-1.56989 0.196429 0.0
-1.63324 0.553571 0.0
-1.58846 0.535714 0.0
-1.59408 0.361905 0.0
-1.59161 0.402211 0.0
-1.58832 0.464286 0.0
-1.61504 0.598581 0.0
-1.59683 0.64359 0.0
-1.57899 0.274107 0.0
-1.56176 0.322381 0.0
-1.54812 0 0.0
-1.53378 0.0357143 0.0
-1.54593 0.147619 0.0
-1.53385 0.0732143 0.0
-1.53393 0.110714 0.0
-1.58522 0.704286 0.0
-1.58709 0.745 0.0
-1.58896 0.785714 0.0
-1.60695 0.830357 0.0
-1.60707 0.892857 0.0
-1.59993 1 0.0
-1.58454 0.965385 0.0
-1.57135 0.928571 0.0
-1.55209 0.241071 0.0
-1.5291 0.198214 0.0
-1.56936 0.570918 0.0
-1.54369 0.517857 0.0
-1.5464 0.380952 0.0
-1.54564 0.427721 0.0
-1.54488 0.47449 0.0
-1.55026 0.606122 0.0
-1.54222 0.677143 0.0
-1.52943 0.282857 0.0
-1.52143 0.33619 0.0
-1.49792 0 0.0
-1.49802 0.05 0.0
-1.49822 0.15 0.0
-1.49312 0.1 0.0
-1.5423 0.717143 0.0
-1.54419 0.767857 0.0
-1.54727 0.819048 0.0
-1.57122 0.861905 0.0
-1.53553 0.914286 0.0
-1.54992 1 0.0
-1.53563 0.964286 0.0
-1.49842 0.25 0.0
-1.48831 0.2 0.0
-1.5214 0.558929 0.0
-1.49891 0.5 0.0
-1.49871 0.4 0.0
-1.47631 0.45 0.0
-1.49911 0.6 0.0
-1.49921 0.65 0.0
-1.49931 0.7 0.0
-1.48111 0.35 0.0
-1.48351 0.3 0.0
-1.44771 0 0.0
-1.44782 0.05 0.0
-1.44804 0.15 0.0
-1.44793 0.1 0.0
-1.49941 0.75 0.0
-1.49951 0.8 0.0
-1.49981 0.95 0.0
-1.49961 0.85 0.0
-1.49971 0.9 0.0
-1.49991 1 0.0
-1.44826 0.25 0.0
-1.43815 0.2 0.0
-1.47151 0.55 0.0
-1.44881 0.5 0.0
-1.44859 0.4 0.0
-1.42619 0.45 0.0
-1.44913 0.65 0.0
-1.44902 0.6 0.0
-1.44935 0.75 0.0
-1.44924 0.7 0.0
-1.43972 0.35 0.0
-1.43336 0.3 0.0
-1.3975 0 0.0
-1.39762 0.05 0.0
-1.39786 0.15 0.0
-1.39274 0.1 0.0
-1.44957 0.85 0.0
-1.44946 0.8 0.0
-1.4523 0.95 0.0
-1.44968 0.9 0.0
-1.4499 1 0.0
-1.3981 0.25 0.0
-1.38798 0.2 0.0
-1.42141 0.55 0.0
-1.3987 0.5 0.0
-1.39834 0.35 0.0
-1.37845 0.4 0.0
-1.37607 0.45 0.0
-1.40784 0.65 0.0
-1.39894 0.6 0.0
-1.41185 0.75 0.0
-1.39918 0.7 0.0
-1.38322 0.3 0.0
-1.34729 0 0.0
-1.34492 0.05 0.0
-1.34018 0.15 0.0
-1.34255 0.1 0.0
-1.40707 0.85 0.0
-1.39941 0.8 0.0
-1.39977 0.95 0.0
-1.39965 0.9 0.0
-1.39989 1 0.0
-1.33781 0.2 0.0
-1.33544 0.25 0.0
-1.37131 0.55 0.0
-1.34859 0.5 0.0
-1.33833 0.4 0.0
-1.3307 0.35 0.0
-1.32595 0.45 0.0
-1.34885 0.6 0.0
-1.36655 0.65 0.0
-1.36179 0.75 0.0
-1.34911 0.7 0.0
-1.33307 0.3 0.0
-1.29708 0 0.0
-1.29722 0.05 0.0
-1.2975 0.15 0.0
-1.29236 0.1 0.0
-1.35703 0.85 0.0
-1.34937 0.8 0.0
-1.34988 1 0.0
-1.34962 0.9 0.0
-1.35226 0.95 0.0
-1.28528 0.25 0.0
-1.28764 0.2 0.0
-1.28931 0.35 0.0
-1.32121 0.55 0.0
-1.29848 0.5 0.0
-1.28709 0.45 0.0
-1.2982 0.4 0.0
-1.29876 0.6 0.0
-1.31647 0.65 0.0
-1.29918 0.75 0.0
-1.29904 0.7 0.0
-1.28292 0.3 0.0
-1.24687 0 0.0
-1.24702 0.05 0.0
-1.24717 0.1 0.0
-1.24732 0.15 0.0
-1.29946 0.85 0.0
-1.29932 0.8 0.0
-1.29987 1 0.0
-1.29974 0.95 0.0
-1.30462 0.9 0.0
-1.24762 0.25 0.0
-1.23747 0.2 0.0
-1.24792 0.35 0.0
-1.22807 0.4 0.0
-1.27111 0.55 0.0
-1.24837 0.5 0.0
-1.24822 0.45 0.0
-1.24867 0.6 0.0
-1.26639 0.65 0.0
-1.26167 0.75 0.0
-1.24897 0.7 0.0
-1.23277 0.3 0.0
-1.19667 0 0.0
-1.19683 0.05 0.0
-1.18964 0.15 0.0
-1.19198 0.1 0.0
-1.25695 0.85 0.0
-1.24927 0.8 0.0
-1.25223 0.95 0.0
-1.24987 1 0.0
-1.24957 0.9 0.0
-1.1873 0.2 0.0
-1.18496 0.25 0.0
-1.18028 0.35 0.0
-1.17794 0.4 0.0
-1.1981 0.45 0.0
-1.19842 0.55 0.0
-1.19826 0.5 0.0
-1.19858 0.6 0.0
-1.19874 0.65 0.0
-1.19906 0.75 0.0
-1.1989 0.7 0.0
-1.18262 0.3 0.0
-1.14646 0 0.0
-1.14663 0.05 0.0
-1.1418 0.1 0.0
-1.13713 0.2 0.0
-1.14697 0.15 0.0
-1.20691 0.85 0.0
-1.20926 0.8 0.0
-1.20221 0.95 0.0
-1.19986 1 0.0
-1.20456 0.9 0.0
-1.13997 0.3 0.0
-1.14731 0.25 0.0
-1.13781 0.4 0.0
-1.13014 0.35 0.0
-1.12548 0.45 0.0
-1.14815 0.5 0.0
-1.15962 0.55 0.0
-1.14849 0.6 0.0
-1.15745 0.65 0.0
-1.16155 0.75 0.0
-1.14917 0.8 0.0
-1.14883 0.7 0.0
-1.09625 0 0.0
-1.09661 0.1 0.0
-1.09393 0.05 0.0
-1.09697 0.2 0.0
-1.08929 0.15 0.0
-1.15687 0.85 0.0
-1.14985 1 0.0
-1.15219 0.95 0.0
-1.14951 0.9 0.0
-1.09733 0.3 0.0
-1.08465 0.25 0.0
-1.09769 0.4 0.0
-1.08 0.35 0.0
-1.08661 0.45 0.0
-1.09804 0.5 0.0
-1.12082 0.55 0.0
-1.10916 0.8 0.0
-1.10629 0.7 0.0
-1.0984 0.6 0.0
-1.11616 0.65 0.0
-1.11149 0.75 0.0
-1.04604 0 0.0
-1.04623 0.05 0.0
-1.04642 0.1 0.0
-1.0468 0.2 0.0
-1.03911 0.15 0.0
-1.09948 0.9 0.0
-1.0993 0.85 0.0
-1.09984 1 0.0
-1.09966 0.95 0.0
-1.04718 0.3 0.0
-1.03449 0.25 0.0
-1.04756 0.4 0.0
-1.02986 0.35 0.0
-1.04775 0.45 0.0
-1.04794 0.5 0.0
-1.04813 0.55 0.0
-1.05911 0.8 0.0
-1.04831 0.6 0.0
-1.06376 0.7 0.0
-1.0485 0.65 0.0
-1.04888 0.75 0.0
-0.995833 0 0.0
-0.991231 0.1 0.0
-0.996033 0.05 0.0
-0.986629 0.2 0.0
-0.98893 0.15 0.0
-1.05447 0.9 0.0
-1.04926 0.85 0.0
-1.04983 1 0.0
-1.04964 0.95 0.0
-0.984328 0.25 0.0
-0.99703 0.3 0.0
-0.997429 0.4 0.0
-0.997628 0.45 0.0
-0.979726 0.35 0.0
-0.997827 0.5 0.0
-0.998027 0.55 0.0
-0.998226 0.6 0.0
-0.961416 0.475 0.0
-1.00907 0.8 0.0
-0.998426 0.65 0.0
-0.998625 0.7 0.0
-1.01138 0.75 0.0
-0.945625 0 0.0
-0.946044 0.1 0.0
-0.943334 0.05 0.0
-0.946463 0.2 0.0
-0.938752 0.15 0.0
-1.00444 0.9 0.0
-1.00675 0.85 0.0
-0.999821 1 0.0
-1.00213 0.95 0.0
-0.93417 0.25 0.0
-0.946881 0.3 0.0
-0.9473 0.4 0.0
-0.929588 0.35 0.0
-0.925005 0.45 0.0
-0.960371 0.525 0.0
-0.959325 0.575 0.0
-0.958279 0.625 0.0
-0.922714 0.5 0.0
-0.959017 0.8 0.0
-0.957233 0.675 0.0
-0.952999 0.7125 0.0
-0.948766 0.75 0.0
-0.895417 0 0.0
-0.895855 0.1 0.0
-0.893136 0.05 0.0
-0.896294 0.2 0.0
-0.888573 0.15 0.0
-0.949184 0.85 0.0
-0.954415 0.9 0.0
-0.949812 1 0.0
-0.949603 0.95 0.0
-0.884011 0.25 0.0
-0.896733 0.3 0.0
-0.874887 0.45 0.0
-0.879449 0.35 0.0
-0.897171 0.4 0.0
-0.920423 0.55 0.0
-0.918132 0.6 0.0
-0.915841 0.65 0.0
-0.872606 0.5 0.0
-0.908968 0.8 0.0
-0.91355 0.7 0.0
-0.898707 0.75 0.0
-0.845208 0 0.0
-0.845438 0.05 0.0
-0.845667 0.1 0.0
-0.845896 0.15 0.0
-0.833853 0.25 0.0
-0.846126 0.2 0.0
-0.899146 0.85 0.0
-0.904386 0.9 0.0
-0.899584 0.95 0.0
-0.899804 1 0.0
-0.838062 0.35 0.0
[...]
POINT_DATA 10839
VECTORS Velocity float
0.21 0 0.0
0.24 0 0.0
0.2275 0 0.0
0.2475 0 0.0
0.25 0 0.0
0.2475 0 0.0
0 0 0.0
0.0475 0 0.0
0.1275 0 0.0
0.09 0 0.0
0.09 0 0.0
0.1275 0 0.0
0.1875 0 0.0
0.16 0 0.0
0.195557 -2.27438e-05 0.0
0.242841 -3.10741e-05 0.0
0.215776 -2.70911e-05 0.0
0.231406 -3.05552e-05 0.0
0.248725 -3.30912e-05 0.0
0.24 0 0.0
0.24284 -3.10027e-05 0.0
0.24852 -3.18665e-05 0.0
0 0 0.0
0.0622238 -3.94008e-06 0.0
0.0322267 -2.60256e-06 0.0
0.16 0 0.0
0.1875 0 0.0
0.21 0 0.0
0.2275 0 0.0
0.193592 -2.55271e-05 0.0
0.138887 -1.41416e-05 0.0
0 0 0.0
0.0475 0 0.0
0.0998416 -9.80577e-06 0.0
0.0622207 -3.98384e-06 0.0
0.0998461 -1.02485e-05 0.0
0.138891 -1.42706e-05 0.0
0.17438 -3.58392e-05 0.0
0.201605 -4.91505e-05 0.0
0.235787 -6.00795e-05 0.0
0.244085 -6.28817e-05 0.0
0.223601 -8.05631e-05 0.0
0.249751 -6.57094e-05 0.0
0.249044 -7.32321e-05 0.0
0.231404 -3.10515e-05 0.0
0.244081 -6.21315e-05 0.0
0 0 0.0
0.0361072 -5.04222e-06 0.0
0.073612 -1.41184e-05 0.0
0.0622476 -1.54766e-05 0.0
0.17437 -3.5304e-05 0.0
0.220162 -4.91476e-05 0.0
0.201595 -4.92178e-05 0.0
0.115549 -2.11169e-05 0.0
0.146676 -3.27737e-05 0.0
0 0 0.0
0.0360878 -3.39303e-06 0.0
0.0693666 -1.10282e-05 0.0
0.0899844 -2.19276e-05 0.0
0.10939 -2.97006e-05 0.0
0.146691 -3.21465e-05 0.0
0.178901 -6.01679e-05 0.0
0.206293 -7.87735e-05 0.0
0.2145 -0.000106275 0.0
0.238526 -9.42718e-05 0.0
0.24735 -9.81926e-05 0.0
0.229606 -0.000120077 0.0
0.226324 -8.46551e-05 0.0
0.249983 -9.86826e-05 0.0
0.246427 -9.59918e-05 0.0
0.23668 -9.03456e-05 0.0
0 0 0.0
0.0322489 -5.70458e-06 0.0
0.0956948 -3.3748e-05 0.0
0.0694263 -2.5425e-05 0.0
0.178877 -5.924e-05 0.0
0.206269 -7.936e-05 0.0
0.127477 -4.56027e-05 0.0
0.165874 -7.50158e-05 0.0
0.152326 -5.36423e-05 0.0
0 0 0.0
0.0360804 -4.88291e-06 0.0
0.0621973 -1.53095e-05 0.0
0.0956317 -3.43767e-05 0.0
0.127523 -4.60521e-05 0.0
0.15666 -6.70119e-05 0.0
0.115598 -5.29094e-05 0.0
0.193625 -0.00011081 0.0
0.21814 -0.000140399 0.0
0.240939 -0.00012799 0.0
0.247737 -0.000132767 0.0
0.25 -0.000134223 0.0
0.234397 -0.000162671 0.0
0.229577 -0.000118404 0.0
0.247728 -0.000132469 0.0
0.24092 -0.000127757 0.0
0 0 0.0
0.0344844 -7.91086e-06 0.0
0.103118 -5.20095e-05 0.0
0.0622985 -2.57676e-05 0.0
0.189728 -9.40706e-05 0.0
0.21299 -0.000131644 0.0
0.170536 -0.00010191 0.0
0.144332 -7.55385e-05 0.0
0 0 0.0
0.0399 -8.4207e-06 0.0
0.0997893 -4.72306e-05 0.0
0.0693242 -2.49996e-05 0.0
0.170622 -0.000102051 0.0
0.144419 -7.71836e-05 0.0
0.124373 -7.83181e-05 0.0
0.183647 -0.000129196 0.0
0.204129 -0.000154844 0.0
0.222036 -0.000182496 0.0
0.249109 -0.000176459 0.0
0.244026 -0.000171733 0.0
0.249119 -0.00017647 0.0
0.238549 -0.000207446 0.0
0.234354 -0.0001617 0.0
0.244883 -0.00018608 0.0
0 0 0.0
0.0322877 -8.38475e-06 0.0
0.0940689 -5.47156e-05 0.0
0.0652108 -3.26531e-05 0.0
0.196698 -0.000141327 0.0
0.217873 -0.000173857 0.0
0.177441 -0.000143509 0.0
0.148693 -9.99104e-05 0.0
0.120333 -6.98149e-05 0.0
0 0 0.0
0.0343937 -7.98498e-06 0.0
0.0716489 -3.2735e-05 0.0
0.15242 -0.000112172 0.0
0.127609 -9.74326e-05 0.0
0.187574 -0.000160511 0.0
0.211948 -0.000200199 0.0
0.248606 -0.00021938 0.0
0.225683 -0.000226995 0.0
0.249782 -0.000220983 0.0
0.246473 -0.000217239 0.0
0.242063 -0.000254595 0.0
0.238491 -0.000206847 0.0
0 0 0.0
0.0338684 -1.05236e-05 0.0
0.0999853 -7.32654e-05 0.0
0.0695358 -4.3559e-05 0.0
0.206264 -0.00018733 0.0
0.222407 -0.000218585 0.0
0.18998 -0.000194824 0.0
0.168259 -0.000157131 0.0
0.143009 -0.000120338 0.0
0.124199 -8.86221e-05 0.0
0.0970896 -5.94149e-05 0.0
0 0 0.0
0.0360252 -1.01843e-05 0.0
0.0673217 -3.51155e-05 0.0
0.130327 -0.000117974 0.0
0.168477 -0.000157936 0.0
0.199468 -0.000206339 0.0
0.218375 -0.000242413 0.0
0.241994 -0.000255206 0.0
0.25 -0.000266469 0.0
0.247989 -0.000263342 0.0
0.229078 -0.00027377 0.0
0.244936 -0.000303693 0.0
0.24874 -0.000279762 0.0
0.234448 -0.000261595 0.0
0 0 0.0
0.0362244 -1.3587e-05 0.0
0.122649 -0.000121018 0.0
0.0712174 -5.16073e-05 0.0
0.208354 -0.000229559 0.0
0.22513 -0.000273576 0.0
0.198054 -0.000238547 0.0
0.177732 -0.000197296 0.0
0.146533 -0.000145218 0.0
0.11914 -0.000101231 0.0
0.0970584 -6.74817e-05 0.0
0 0 0.0
0.0349448 -1.14115e-05 0.0
0.0672864 -3.95807e-05 0.0
0.152293 -0.000165337 0.0
0.178011 -0.000202021 0.0
0.210111 -0.000255899 0.0
0.24486 -0.000303606 0.0
0.24942 -0.000311937 0.0
0.232221 -0.000322626 0.0
0.244195 -0.000346005 0.0
0.249989 -0.000369515 0.0
0.249131 -0.000327922 0.0
0.235916 -0.00031389 0.0
0.212956 -0.000313192 0.0
0 0 0.0
0.037151 -1.60269e-05 0.0
0.141099 -0.000168847 0.0
0.0999434 -0.000101832 0.0
0.0665853 -5.03213e-05 0.0
0.213634 -0.000279867 0.0
0.186615 -0.000243549 0.0
0.165093 -0.000197978 0.0
0.122251 -0.00012162 0.0
0.092876 -7.41114e-05 0.0
0 0 0.0
0.0349169 -1.27518e-05 0.0
0.064238 -4.20645e-05 0.0
0.165587 -0.000211823 0.0
0.186959 -0.000249107 0.0
0.158111 -0.000221868 0.0
0.247093 -0.000355397 0.0
0.248693 -0.000409119 0.0
0.231047 -0.000362789 0.0
0.240522 -0.000387293 0.0
0.248756 -0.000408782 0.0
0.240206 -0.000361635 0.0
0.229261 -0.00035544 0.0
0.199173 -0.000306741 0.0
0.218626 -0.000367046 0.0
0 0 0.0
0.0346369 -1.57303e-05 0.0
0.126154 -0.000164239 0.0
0.0681614 -5.69256e-05 0.0
0.0988023 -0.000111015 0.0
0.20809 -0.00032074 0.0
0.189769 -0.000279432 0.0
0.168136 -0.000231715 0.0
0.140631 -0.00016752 0.0
0.0954214 -8.82944e-05 0.0
0 0 0.0
0.0332627 -1.30583e-05 0.0
0.0660702 -5.01364e-05 0.0
0.183212 -0.000289933 0.0
0.159248 -0.000248622 0.0
0.244901 -0.00042202 0.0
0.249661 -0.000463672 0.0
0.235956 -0.000425195 0.0
0.244855 -0.000449511 0.0
0.249377 -0.000462495 0.0
0.238625 -0.000427494 0.0
0.218428 -0.000386278 0.0
0.203094 -0.000358465 0.0
0.223362 -0.000420185 0.0
0 0 0.0
0.0477892 -3.14725e-05 0.0
0.127902 -0.000187512 0.0
0.0904037 -0.000104227 0.0
0.202618 -0.000345157 0.0
0.177978 -0.000283618 0.0
0.147901 -0.000212497 0.0
0.118734 -0.000138982 0.0
0.0780441 -7.40737e-05 0.0
0 0 0.0
0.0342434 -1.53931e-05 0.0
0.187818 -0.000343845 0.0
0.160384 -0.000276953 0.0
0.246455 -0.000482905 0.0
0.25 -0.000520653 0.0
0.240134 -0.000491556 0.0
0.247574 -0.000542293 0.0
0.239865 -0.000491137 0.0
0.2273 -0.000454632 0.0
0.20974 -0.00040427 0.0
0.227715 -0.000477381 0.0
0.210278 -0.000421467 0.0
0 0 0.0
0.0478494 -3.51102e-05 0.0
0.127993 -0.000209572 0.0
0.0904823 -0.00011467 0.0
0.187183 -0.000341974 0.0
0.159634 -0.000267733 0.0
0.0472147 -3.08336e-05 0.0
0.127102 -0.000184852 0.0
0.0896087 -0.00010195 0.0
0 0 0.0
0.187891 -0.000386885 0.0
0.160471 -0.000310322 0.0
0.247423 -0.000548531 0.0
0.249999 -0.00058729 0.0
0.240165 -0.000554798 0.0
0.24759 -0.000610297 0.0
0.227255 -0.000512502 0.0
0.239834 -0.000553698 0.0
0.18711 -0.000384643 0.0
0.209679 -0.000455409 0.0
0.227754 -0.000524569 0.0
0.210341 -0.000474279 0.0
0 0 0.0
0.0479157 -3.85241e-05 0.0
0.128096 -0.000233224 0.0
0.0905891 -0.000128679 0.0
0.12701 -0.00020733 0.0
0.15955 -0.00030073 0.0
0.0471585 -3.41934e-05 0.0
0.0895228 -0.000113373 0.0
0 0 0.0
0.187974 -0.000432511 0.0
0.160569 -0.000346266 0.0
0.247406 -0.000616343 0.0
0.249999 -0.000658624 0.0
0.227797 -0.000575926 0.0
0.240215 -0.000649766 0.0
0.247608 -0.000683665 0.0
0.227212 -0.000561622 0.0
0.239798 -0.0006209 0.0
0.187049 -0.000417479 0.0
0.209611 -0.000509998 0.0
0.210411 -0.000530688 0.0
0 0 0.0
0.0479935 -4.28484e-05 0.0
0.128228 -0.000262562 0.0
0.090698 -0.000142205 0.0
0.126925 -0.000226617 0.0
0.159455 -0.000335156 0.0
0.0470903 -3.79721e-05 0.0
0.0894276 -0.000125196 0.0
0 0 0.0
0.160678 -0.000384416 0.0
0.188093 -0.000493657 0.0
0.247387 -0.000689061 0.0
0.249998 -0.000735223 0.0
0.240248 -0.000709996 0.0
0.227878 -0.000666882 0.0
0.247629 -0.000761512 0.0
0.239758 -0.000692537 0.0
0.227165 -0.000615187 0.0
0.186959 -0.000464784 0.0
0.209534 -0.000568059 0.0
0.210491 -0.000591672 0.0
0 0 0.0
0.0480718 -4.72657e-05 0.0
0.128338 -0.000286419 0.0
0.0908182 -0.000156958 0.0
0.126814 -0.000250908 0.0
0.159349 -0.00037234 0.0
0 0 0.0
0.0893213 -0.00013847 0.0
0.0470214 -4.17137e-05 0.0
0.1882 -0.000549429 0.0
0.160801 -0.00042638 0.0
0.227934 -0.000727537 0.0
0.247365 -0.000767905 0.0
0.249998 -0.000818196 0.0
0.247647 -0.000827147 0.0
0.240284 -0.00077297 0.0
0.239714 -0.000770158 0.0
0.227101 -0.000684585 0.0
0.18683 -0.000528589 0.0
0.209448 -0.000631509 0.0
0.21058 -0.000656846 0.0
0 0 0.0
0.048161 -5.21132e-05 0.0
0.0909374 -0.000171089 0.0
0.128479 -0.000316115 0.0
0.12667 -0.000281119 0.0
0.15923 -0.000412242 0.0
0 0 0.0
0.0469389 -4.58558e-05 0.0
0.089217 -0.000150695 0.0
0.188289 -0.000592844 0.0
0.160937 -0.000471938 0.0
0.227993 -0.000792661 0.0
0.240353 -0.000893604 0.0
0.247341 -0.000853377 0.0
0.249997 -0.000907581 0.0
0.247666 -0.000896206 0.0
0.239663 -0.000854134 0.0
0.22703 -0.000759845 0.0
0.186744 -0.000570684 0.0
0.209352 -0.000699117 0.0
0.210679 -0.000728208 0.0
0 0 0.0
0.0482603 -5.72201e-05 0.0
0.128661 -0.000354847 0.0
0.0910987 -0.000191165 0.0
0.126552 -0.000305518 0.0
0.159097 -0.000455387 0.0
0.0468566 -4.97691e-05 0.0
0 0 0.0
0.0890765 -0.000167129 0.0
0.161088 -0.00052154 0.0
0.188452 -0.000671452 0.0
0.228106 -0.000908792 0.0
0.240411 -0.00099079 0.0
0.247693 -0.00099332 0.0
0.2473 -0.000987955 0.0
0.249996 -0.00100637 0.0
0.239607 -0.000947301 0.0
0.226922 -0.000869794 0.0
0.186585 -0.000645619 0.0
0.209245 -0.000773788 0.0
0.210788 -0.00080533 0.0
0 0 0.0
0.0483686 -6.28249e-05 0.0
0.0912604 -0.000209782 0.0
0.161255 -0.000574167 0.0
0.12881 -0.000384939 0.0
0.1264 -0.000336209 0.0
0.158981 -0.000492414 0.0
0.0467609 -5.48747e-05 0.0
0 0 0.0
0.0889481 -0.000182072 0.0
0.210891 -0.000876809 0.0
0.188563 -0.000724755 0.0
0.240461 -0.00107277 0.0
0.228199 -0.00100694 0.0
0.247738 -0.00114685 0.0
0.249995 -0.00111251 0.0
0.247276 -0.00106802 0.0
0.239545 -0.00104682 0.0
0.226846 -0.00094419 0.0
0.186478 -0.000694968 0.0
0.158788 -0.000553383 0.0
0.209126 -0.000853671 0.0
0 0 0.0
0.0914225 -0.000229493 0.0
0.048496 -6.99245e-05 0.0
0.161402 -0.000622379 0.0
0.129031 -0.000432006 0.0
0.126232 -0.000370003 0.0
0 0 0.0
0.0466563 -6.01619e-05 0.0
0.0887771 -0.000201696 0.0
0.211004 -0.000952538 0.0
0.188763 -0.000821378 0.0
0.240515 -0.00116089 0.0
0.228303 -0.00111288 0.0
0.247763 -0.001241 0.0
0.249993 -0.00122945 0.0
0.247249 -0.00115586 0.0
0.158645 -0.000595394 0.0
0.209015 -0.000927254 0.0
0.239475 -0.00115451 0.0
0.226764 -0.00102505 0.0
0.186323 -0.000766305 0.0
0 0 0.0
0.0486217 -7.6356e-05 0.0
0.0916162 -0.000252477 0.0
0.161604 -0.000685591 0.0
0.129247 -0.000476567 0.0
0.0886044 -0.000220582 0.0
0.126017 -0.000412168 0.0
0 0 0.0
0.0465361 -6.63011e-05 0.0
0.211149 -0.00105107 0.0
0.188946 -0.000906918 0.0
0.240589 -0.00128134 0.0
0.228417 -0.00122904 0.0
0.247792 -0.00134152 0.0
0.249993 -0.00135826 0.0
0.247192 -0.00133085 0.0
0.158451 -0.000654302 0.0
0.239398 -0.00127445 0.0
0.208894 -0.00100451 0.0
0.226616 -0.00117068 0.0
0.186106 -0.000866588 0.0
0 0 0.0
0.0918542 -0.000281215 0.0
0.0487671 -8.41534e-05 0.0
0.161871 -0.000770066 0.0
0.129484 -0.000525591 0.0
0.0884352 -0.000239688 0.0
0.12581 -0.000453444 0.0
0 0 0.0
0.0464093 -7.27482e-05 0.0
0.189145 -0.0010017 0.0
0.21131 -0.00116016 0.0
0.240671 -0.00141541 0.0
0.247833 -0.00147789 0.0
0.228544 -0.00135585 0.0
0.24999 -0.00149611 0.0
0.247149 -0.00147076 0.0
0.239314 -0.00140324 0.0
0.249551 -0.0016032 0.0
0.158235 -0.000718651 0.0
0.22649 -0.00129098 0.0
0.208686 -0.0011384 0.0
0.185961 -0.000930903 0.0
0 0 0.0
0.0920719 -0.000307684 0.0
0.0489379 -9.39108e-05 0.0
0.162071 -0.000833733 0.0
0.129745 -0.000579683 0.0
0.0882301 -0.000262483 0.0
0.125617 -0.000490981 0.0
0 0 0.0
0.0462786 -7.93658e-05 0.0
0.189366 -0.00110495 0.0
0.211487 -0.00128021 0.0
0.240758 -0.00155953 0.0
0.228684 -0.00149726 0.0
0.247897 -0.00170443 0.0
0.249173 -0.00160304 0.0
0.243798 -0.00155564 0.0
0.233432 -0.00146076 0.0
0.249985 -0.00173378 0.0
0.157999 -0.000789024 0.0
0.21808 -0.00132195 0.0
0.203286 -0.00119449 0.0
0.185696 -0.00104673 0.0
0 0 0.0
0.0923329 -0.00033962 0.0
0.0491154 -0.000103188 0.0
0.16234 -0.000920223 0.0
0.130034 -0.000640252 0.0
0.125331 -0.000546072 0.0
0.0880044 -0.000287726 0.0
0 0 0.0
0.0461213 -8.66082e-05 0.0
0.18961 -0.00121956 0.0
0.211682 -0.00141256 0.0
0.247944 -0.00187712 0.0
0.228837 -0.0016514 0.0
0.24086 -0.00172094 0.0
0.24707 -0.00171193 0.0
0.239157 -0.00163834 0.0
0.226253 -0.0015141 0.0
0.249978 -0.00191039 0.0
0.157737 -0.000867259 0.0
0.208371 -0.00133989 0.0
0.185457 -0.00115135 0.0
0 0 0.0
0.0493027 -0.000113372 0.0
0.0926218 -0.000375933 0.0
0.130304 -0.000696363 0.0
0.189878 -0.00134405 0.0
0.162639 -0.0010158 0.0
0.125054 -0.000598747 0.0
0.0877565 -0.000315374 0.0
0.0459548 -9.48143e-05 0.0
0 0 0.0
0.228975 -0.0017914 0.0
0.211898 -0.00156031 0.0
0.247987 -0.00202622 0.0
0.240967 -0.00190041 0.0
0.226089 -0.00166549 0.0
0.247009 -0.00188514 0.0
0.239041 -0.00180362 0.0
0.249974 -0.00210468 0.0
0.185196 -0.00126398 0.0
0.15739 -0.000967934 0.0
0.208089 -0.00151562 0.0
0 0 0.0
0.0495203 -0.000126117 0.0
0.092976 -0.000420148 0.0
0.130649 -0.000768372 0.0
0.190097 -0.00145062 0.0
0.163036 -0.00114854 0.0
0.124752 -0.000655345 0.0
0.0874582 -0.000348268 0.0
0.0457747 -0.000103252 0.0
0 0 0.0
0.124417 -0.000719258 0.0
0.229124 -0.00193777 0.0
0.21221 -0.00177804 0.0
0.241136 -0.00218247 0.0
0.248032 -0.00218361 0.0
0.225841 -0.00189305 0.0
0.238918 -0.00198355 0.0
0.246943 -0.00207744 0.0
0.249964 -0.00231853 0.0
0.184908 -0.00138795 0.0
0.157066 -0.00106523 0.0
0.207847 -0.00166933 0.0
0 0 0.0
0.0497609 -0.000139588 0.0
0.0933345 -0.000465746 0.0
0.131032 -0.000850548 0.0
0.190417 -0.00159986 0.0
0.16341 -0.00127139 0.0
0.0455739 -0.000113894 0.0
0.0871551 -0.00038229 0.0
0 0 0.0
0.124109 -0.000775932 0.0
0.229322 -0.00214204 0.0
0.212482 -0.00196523 0.0
0.241271 -0.0024071 0.0
0.248091 -0.00241004 0.0
0.225667 -0.00204945 0.0
0.238782 -0.00218151 0.0
0.249956 -0.0025555 0.0
0.246834 -0.00238917 0.0
0.184671 -0.00148632 0.0
0.15671 -0.0011691 0.0
0.20758 -0.00183314 0.0
0 0 0.0
0.0500256 -0.000154351 0.0
0.0937285 -0.000515244 0.0
0.131519 -0.000954596 0.0
0.190858 -0.0018116 0.0
0.212777 -0.0021741 0.0
0.163818 -0.00140916 0.0
0.0453695 -0.000123815 0.0
0.0868265 -0.00041811 0.0
0 0 0.0
0.123713 -0.000850131 0.0
0.229617 -0.00244425 0.0
0.241387 -0.00260832 0.0
0.248157 -0.00265886 0.0
0.249944 -0.00275121 0.0
0.225484 -0.00221411 0.0
0.238623 -0.00240322 0.0
0.246746 -0.00263048 0.0
0.156318 -0.00128382 0.0
0.184329 -0.00163173 0.0
0.207283 -0.00201299 0.0
0 0 0.0
0.0503393 -0.000173226 0.0
0.0941692 -0.00057383 0.0
0.131996 -0.00106156 0.0
0.191156 -0.00195784 0.0
0.213101 -0.00240136 0.0
0.16427 -0.0015623 0.0
0.045133 -0.000134922 0.0
0.0864654 -0.000457347 0.0
0 0 0.0
0.155978 -0.00137666 0.0
0.0860715 -0.00049814 0.0
0.123211 -0.000942618 0.0
0.229864 -0.00271275 0.0
0.24151 -0.00281608 0.0
0.248257 -0.00306472 0.0
0.249936 -0.00295634 0.0
0.246672 -0.00283598 0.0
0.225239 -0.00243125 0.0
0.238383 -0.00274706 0.0
0.183852 -0.00182965 0.0
0.207008 -0.00218452 0.0
0.230085 -0.0029412 0.0
0 0 0.0
0.0506709 -0.000193257 0.0
0.132523 -0.00118198 0.0
0.0946574 -0.000641027 0.0
0.21346 -0.00266263 0.0
0.191692 -0.00222441 0.0
0.164769 -0.00173404 0.0
0.0448636 -0.000147349 0.0
0 0 0.0
0.183534 -0.00196435 0.0
0.155514 -0.00150944 0.0
0.122725 -0.00103365 0.0
0.0445773 -0.000161791 0.0
0.0856371 -0.000545637 0.0
0.241681 -0.00311209 0.0
0.248316 -0.00331019 0.0
0.249913 -0.00325827 0.0
0.249897 -0.00350846 0.0
0.246586 -0.00305405 0.0
0.224961 -0.00267326 0.0
0.238176 -0.00302285 0.0
0.206707 -0.0023589 0.0
0.230314 -0.00319366 0.0
0.051025 -0.000216509 0.0
0 0 0.0
0.133016 -0.0012937 0.0
0.0951977 -0.00071513 0.0
0.21385 -0.0029507 0.0
0.192052 -0.0024079 0.0
0.165321 -0.00192941 0.0
0 0 0.0
0.183078 -0.00214801 0.0
0.154898 -0.00168015 0.0
0.12228 -0.00111012 0.0
0.0442861 -0.000175535 0.0
0.0851649 -0.000595406 0.0
0.241934 -0.0035815 0.0
0.248379 -0.00356731 0.0
0.249872 -0.00377112 0.0
0.246412 -0.003501 0.0
0.224661 -0.00293319 0.0
0.237958 -0.00332338 0.0
0.206199 -0.0026623 0.0
0.230629 -0.00353895 0.0
0 0 0.0
0.0514374 -0.000244424 0.0
0.133651 -0.00144505 0.0
0.0957433 -0.000793891 0.0
0.165928 -0.00214597 0.0
0.214279 -0.0032774 0.0
0.192704 -0.00274299 0.0
0 0 0.0
0 0 0.0
0.182571 -0.00235366 0.0
0.154326 -0.001841 0.0
0.121707 -0.00121409 0.0
0.0846489 -0.000649099 0.0
0.0439512 -0.000190388 0.0
0.242135 -0.00395991 0.0
0.248455 -0.00393893 0.0
0.237759 -0.00358296 0.0
0.249837 -0.00415248 0.0
0.246265 -0.00385713 0.0
0.224323 -0.00322248 0.0
0.205755 -0.00291662 0.0
0.242301 -0.00429632 0.0
0.230954 -0.00392272 0.0
0.0518962 -0.000273403 0.0
0.0964056 -0.000886176 0.0
0.134361 -0.00162179 0.0
0.166464 -0.00234851 0.0
0.214749 -0.0036392 0.0
0.193137 -0.0029843 0.0
0 0 0.0
0 0 0.0
0.153831 -0.00196955 0.0
0.18187 -0.00262716 0.0
0.0841426 -0.000698398 0.0
0.120983 -0.00134062 0.0
0.0435851 -0.000208067 0.0
0.248577 -0.00453079 0.0
0.249784 -0.00457723 0.0
0.20527 -0.00319322 0.0
0.237541 -0.0038556 0.0
0.246142 -0.00415659 0.0
0.223809 -0.0036471 0.0
0.242482 -0.00464664 0.0
0.231455 -0.00451136 0.0
0.215255 -0.00405 0.0
0.0524462 -0.000310808 0.0
0.0971527 -0.00100238 0.0
0.135273 -0.00185747 0.0
0.167195 -0.00262217 0.0
0.193922 -0.00342521 0.0
0 0 0.0
0 0 0.0
0.153017 -0.00218414 0.0
0.181243 -0.00287536 0.0
0.0834704 -0.000766804 0.0
0.120288 -0.00145763 0.0
0.0431712 -0.000224989 0.0
0.246002 -0.0044757 0.0
0.249721 -0.00503326 0.0
0.248648 -0.00500686 0.0
0.204736 -0.0034908 0.0
0.237247 -0.00423327 0.0
0.223378 -0.00400599 0.0
0.180555 -0.00313888 0.0
0.242799 -0.00534519 0.0
0 0 0.0
0.231835 -0.00502174 0.0
0.194621 -0.00384056 0.0
0.215799 -0.004508 0.0
0.05302 -0.000355369 0.0
0.136032 -0.00206872 0.0
0.0980893 -0.00116372 0.0
0.168167 -0.00303099 0.0
0 0 0.0
0 0 0.0
0 0 0.0
0 0 0.0
0 0 0.0
0.0427633 -0.000241089 0.0
0.119526 -0.0015874 0.0
0.152264 -0.00238241 0.0
0.082871 -0.000826081 0.0
0.245797 -0.00490844 0.0
0.249637 -0.00553655 0.0
0.248723 -0.00552771 0.0
0.222986 -0.00430612 0.0
0.204141 -0.00381325 0.0
0.236762 -0.00480862 0.0
0.203593 -0.00410449 0.0
0.179995 -0.00334353 0.0
0.243027 -0.00592165 0.0
0.232246 -0.00557414 0.0
0 0 0.0
6.93075e-05 -3.5117e-05 0.0
0 0 0.0
-9.96978e-05 0.000106858 0.0
0.21639 -0.00503477 0.0
0.195192 -0.00418703 0.0
0.0537372 -0.000415424 0.0
0.137015 -0.00235104 0.0
0.0990604 -0.00134368 0.0
0.169084 -0.00343773 0.0
0 0 0.0
0 0 0.0
0 0 0.0
-5.5439e-05 -0.000114381 0.0
3.70986e-05 -0.000174789 0.0
0.000133508 -0.000145468 0.0
0 0 0.0
0.0422961 -0.000261787 0.0
0.118831 -0.00169967 0.0
0.151442 -0.00258977 0.0
0.0820771 -0.000900335 0.0
0.245568 -0.00539032 0.0
0.249528 -0.00608222 0.0
0.248783 -0.00609203 0.0
0.222561 -0.00463196 0.0
0.236454 -0.00517916 0.0
0.202995 -0.00440533 0.0
0.178976 -0.00370801 0.0
0.243263 -0.00654729 0.0
0.235765 -0.00625507 0.0
0.225401 -0.00584473 0.0
0 0 0.0
0.000187104 -4.90285e-05 0.0
0 0 0.0
0 0 0.0
-0.000399805 0.000662591 0.0
-0.000293472 0.000171071 0.0
0.212154 -0.00535212 0.0
0.195991 -0.00471789 0.0
0.100054 -0.00154261 0.0
0.0545013 -0.000495266 0.0
0.138115 -0.00270425 0.0
0.170075 -0.00391632 0.0
0 0 0.0
3.7858e-06 -0.000279668 0.0
-0.000125798 -0.000153735 0.0
0.000106593 -0.000249121 0.0
0.000242905 -0.000136552 0.0
0 0 0.0
0.0417931 -0.00028251 0.0
0.117945 -0.00183977 0.0
0.150548 -0.00280287 0.0
0.0812869 -0.000973064 0.0
0.245296 -0.00590464 0.0
0.249395 -0.00667093 0.0
0.248826 -0.00670687 0.0
0.221783 -0.00521297 0.0
0.236107 -0.00555754 0.0
0.202227 -0.00479005 0.0
0.149568 -0.00304114 0.0
0.17807 -0.00402756 0.0
0.243444 -0.00708394 0.0
0.232947 -0.00664393 0.0
0.21746 -0.00610952 0.0
0 0 0.0
0.000299491 -2.94315e-05 0.0
0 0 0.0
0 0 0.0
0 0 0.0
0 0 0.0
-0.000433202 0.000224125 0.0
-0.000147594 0.000802384 0.0
-0.000473293 0.00115066 0.0
-0.00103369 0.00165862 0.0
-0.000720605 0.000812915 0.0
0 0 0.0
-0.000117235 0.00220105 0.0
0.197054 -0.00552126 0.0
0.170927 -0.00438477 0.0
0 0 0.0
0.0554965 -0.000614096 0.0
0.101308 -0.00183007 0.0
0.139535 -0.00326086 0.0
0 0 0.0
0 0 0.0
-0.000100914 -0.000124066 0.0
9.77275e-05 -0.000142223 0.0