# vtk DataFile Version 3.0
Mesh NS-CD Problem
ASCII
DATASET UNSTRUCTURED_GRID
POINTS 10839 float
-2 0.3 0.0
-2 0.4 0.0
-2 0.35 0.0
-2 0.45 0.0
-2 0.5 0.0
-2 0.55 0.0
-2 0 0.0
-2 0.05 0.0
-2 0.85 0.0
-2 0.9 0.0
-2 0.1 0.0
-2 0.15 0.0
-2 0.25 0.0
-2 0.2 0.0
-1.96653 0.266667 0.0
-1.96524 0.415385 0.0
-1.96485 0.315 0.0
-1.96348 0.363636 0.0
-1.96414 0.464286 0.0
-2 0.6 0.0
-1.96538 0.584615 0.0
-1.96538 0.538462 0.0
-1.94979 0 0.0
-1.96653 0.0666666 0.0
-1.93306 0.0333333 0.0
-2 0.8 0.0
-2 0.75 0.0
-2 0.7 0.0
-2 0.65 0.0
-1.96249 0.7375 0.0
-1.96666 0.833333 0.0
-2 1 0.0
-2 0.95 0.0
-1.96249 0.8875 0.0
-1.96666 0.933333 0.0
-1.96234 0.1125 0.0
-1.96653 0.166667 0.0
-1.93724 0.225 0.0
-1.92971 0.28 0.0
-1.93048 0.380769 0.0
-1.93048 0.423077 0.0
-1.89958 0.3375 0.0
-1.9292 0.484203 0.0
-1.92117 0.530907 0.0
-1.96363 0.636364 0.0
-1.93076 0.576923 0.0
-1.89958 0 0.0
-1.88703 0.0375 0.0
-1.90963 0.08 0.0
-1.86611 0.0666666 0.0
-1.93749 0.775 0.0
-1.93635 0.672727 0.0
-1.92999 0.72 0.0
-1.93332 0.866667 0.0
-1.92856 0.821429 0.0
-1.94999 1 0.0
-1.92499 0.9625 0.0
-1.92499 0.925 0.0
-1.89998 0.9 0.0
-1.89958 0.125 0.0
-1.92827 0.178571 0.0
-1.89958 0.233333 0.0
-1.89045 0.290909 0.0
-1.86096 0.311538 0.0
-1.89241 0.392857 0.0
-1.89334 0.448489 0.0
-1.85655 0.357143 0.0
-1.89614 0.653846 0.0
-1.89427 0.504121 0.0
-1.8952 0.559753 0.0
-1.89614 0.615385 0.0
-1.84937 0 0.0
-1.83264 0.0333333 0.0
-1.85655 0.107143 0.0
-1.81172 0.075 0.0
-1.89998 0.766667 0.0
-1.89089 0.709091 0.0
-1.87498 0.85 0.0
-1.85998 0.79 0.0
-1.88748 0.8125 0.0
-1.89998 1 0.0
-1.88748 0.9625 0.0
-1.86664 0.933333 0.0
-1.85712 0.892857 0.0
-1.87448 0.15 0.0
-1.86611 0.194444 0.0
-1.83264 0.133333 0.0
-1.83264 0.2625 0.0
-1.82068 0.321429 0.0
-1.85664 0.404762 0.0
-1.85674 0.452381 0.0
-1.85683 0.5 0.0
-1.81184 0.375 0.0
-1.85712 0.642857 0.0
-1.85693 0.547619 0.0
-1.85702 0.595238 0.0
-1.79917 0 0.0
-1.78482 0.0357143 0.0
-1.79917 0.116667 0.0
-1.76569 0.0666666 0.0
-1.85452 0.745455 0.0
-1.82689 0.692308 0.0
-1.81815 0.781818 0.0
-1.82497 0.825 0.0
-1.84997 1 0.0
-1.8333 0.958333 0.0
-1.81247 0.8875 0.0
-1.81247 0.925 0.0
-1.81742 0.218182 0.0
-1.82427 0.175 0.0
-1.77634 0.145455 0.0
-1.79144 0.242308 0.0
-1.78482 0.285714 0.0
-1.77469 0.332653 0.0
-1.81215 0.529762 0.0
-1.81194 0.422619 0.0
-1.81203 0.470238 0.0
-1.76714 0.392857 0.0
-1.81234 0.625 0.0
-1.79732 0.571429 0.0
-1.74896 0 0.0
-1.73222 0.0333333 0.0
-1.75398 0.105 0.0
-1.71883 0.07 0.0
-1.79227 0.730769 0.0
-1.78007 0.679121 0.0
-1.75765 0.769231 0.0
-1.78178 0.818182 0.0
-1.78996 0.86 0.0
-1.79996 1 0.0
-1.78568 0.964286 0.0
-1.76663 0.922222 0.0
-1.76569 0.1875 0.0
-1.73222 0.15 0.0
-1.74896 0.25 0.0
-1.73714 0.304762 0.0
-1.76743 0.537202 0.0
-1.72869 0.343878 0.0
-1.76732 0.485119 0.0
-1.76723 0.440476 0.0
-1.72243 0.410714 0.0
-1.76757 0.607143 0.0
-1.69875 0 0.0
-1.68369 0.035 0.0
-1.69875 0.1125 0.0
-1.66528 0.075 0.0
-1.74341 0.708974 0.0
-1.73324 0.665934 0.0
-1.70441 0.74478 0.0
-1.71423 0.785714 0.0
-1.72303 0.826923 0.0
-1.74541 0.854545 0.0
-1.74541 0.890909 0.0
-1.74996 1 0.0
-1.73745 0.9625 0.0
-1.71359 0.927273 0.0
-1.68716 0.153846 0.0
-1.7131 0.214286 0.0
-1.70725 0.275 0.0
-1.69712 0.321939 0.0
-1.72279 0.589286 0.0
-1.72261 0.5 0.0
-1.7227 0.544643 0.0
-1.6827 0.355102 0.0
-1.67773 0.428571 0.0
-1.70763 0.464286 0.0
-1.70369 0.62449 0.0
-1.64854 0 0.0
-1.63181 0.0375 0.0
-1.64137 0.142857 0.0
-1.61764 0.0769231 0.0
-1.69458 0.703846 0.0
-1.67471 0.657437 0.0
-1.66143 0.727637 0.0
-1.67125 0.768571 0.0
-1.67851 0.821429 0.0
-1.68841 0.861538 0.0
-1.70904 0.890909 0.0
-1.69995 1 0.0
-1.68176 0.963636 0.0
-1.67267 0.927273 0.0
-1.65427 0.187143 0.0
-1.66718 0.231429 0.0
-1.66554 0.3 0.0
-1.67802 0.571429 0.0
-1.67792 0.523809 0.0
-1.6367 0.366327 0.0
-1.63682 0.423469 0.0
-1.62568 0.502976 0.0
-1.6629 0.470238 0.0
-1.65254 0.618367 0.0
-1.6059 0.307143 0.0
-1.59833 0 0.0
-1.58288 0.0384615 0.0
-1.60563 0.169643 0.0
-1.58179 0.112271 0.0
-1.56964 0.0714286 0.0
-1.64574 0.690385 0.0
-1.62827 0.751429 0.0
-1.63371 0.791071 0.0
-1.64279 0.857143 0.0
-1.65378 0.896154 0.0
-1.64994 1 0.0
-1.6363 0.963636 0.0
-1.61916 0.930769 0.0
-1.61345 0.209107 0.0
-1.62126 0.248571 0.0
-1.56989 0.196429 0.0
-1.63324 0.553571 0.0
-1.58846 0.535714 0.0
-1.59408 0.361905 0.0
-1.59161 0.402211 0.0
-1.58832 0.464286 0.0
-1.61504 0.598581 0.0
-1.59683 0.64359 0.0
-1.57899 0.274107 0.0
-1.56176 0.322381 0.0
-1.54812 0 0.0
-1.53378 0.0357143 0.0
-1.54593 0.147619 0.0
-1.53385 0.0732143 0.0
-1.53393 0.110714 0.0
-1.58522 0.704286 0.0
-1.58709 0.745 0.0
-1.58896 0.785714 0.0
-1.60695 0.830357 0.0
-1.60707 0.892857 0.0
-1.59993 1 0.0
-1.58454 0.965385 0.0
-1.57135 0.928571 0.0
-1.55209 0.241071 0.0
-1.5291 0.198214 0.0
-1.56936 0.570918 0.0
-1.54369 0.517857 0.0
-1.5464 0.380952 0.0
-1.54564 0.427721 0.0
-1.54488 0.47449 0.0
-1.55026 0.606122 0.0
-1.54222 0.677143 0.0
-1.52943 0.282857 0.0
-1.52143 0.33619 0.0
-1.49792 0 0.0
-1.49802 0.05 0.0
-1.49822 0.15 0.0
-1.49312 0.1 0.0
-1.5423 0.717143 0.0
-1.54419 0.767857 0.0
-1.54727 0.819048 0.0
-1.57122 0.861905 0.0
-1.53553 0.914286 0.0
-1.54992 1 0.0
-1.53563 0.964286 0.0
-1.49842 0.25 0.0
-1.48831 0.2 0.0
-1.5214 0.558929 0.0
-1.49891 0.5 0.0
-1.49871 0.4 0.0
-1.47631 0.45 0.0
-1.49911 0.6 0.0
-1.49921 0.65 0.0
-1.49931 0.7 0.0
-1.48111 0.35 0.0
-1.48351 0.3 0.0
-1.44771 0 0.0
-1.44782 0.05 0.0
-1.44804 0.15 0.0
-1.44793 0.1 0.0
-1.49941 0.75 0.0
-1.49951 0.8 0.0
-1.49981 0.95 0.0
-1.49961 0.85 0.0
-1.49971 0.9 0.0
-1.49991 1 0.0
-1.44826 0.25 0.0
-1.43815 0.2 0.0
-1.47151 0.55 0.0
-1.44881 0.5 0.0
-1.44859 0.4 0.0
-1.42619 0.45 0.0
-1.44913 0.65 0.0
-1.44902 0.6 0.0
-1.44935 0.75 0.0
-1.44924 0.7 0.0
-1.43972 0.35 0.0
-1.43336 0.3 0.0
-1.3975 0 0.0
-1.39762 0.05 0.0
-1.39786 0.15 0.0
-1.39274 0.1 0.0
-1.44957 0.85 0.0
-1.44946 0.8 0.0
-1.4523 0.95 0.0
-1.44968 0.9 0.0
-1.4499 1 0.0
-1.3981 0.25 0.0
-1.38798 0.2 0.0
-1.42141 0.55 0.0
-1.3987 0.5 0.0
-1.39834 0.35 0.0
-1.37845 0.4 0.0
-1.37607 0.45 0.0
-1.40784 0.65 0.0
-1.39894 0.6 0.0
-1.41185 0.75 0.0
-1.39918 0.7 0.0
-1.38322 0.3 0.0
-1.34729 0 0.0
-1.34492 0.05 0.0
-1.34018 0.15 0.0
-1.34255 0.1 0.0
-1.40707 0.85 0.0
-1.39941 0.8 0.0
-1.39977 0.95 0.0
-1.39965 0.9 0.0
-1.39989 1 0.0
-1.33781 0.2 0.0
-1.33544 0.25 0.0
-1.37131 0.55 0.0
-1.34859 0.5 0.0
-1.33833 0.4 0.0
-1.3307 0.35 0.0
-1.32595 0.45 0.0
-1.34885 0.6 0.0
-1.36655 0.65 0.0
-1.36179 0.75 0.0
-1.34911 0.7 0.0
-1.33307 0.3 0.0
-1.29708 0 0.0
-1.29722 0.05 0.0
-1.2975 0.15 0.0
-1.29236 0.1 0.0
-1.35703 0.85 0.0
-1.34937 0.8 0.0
-1.34988 1 0.0
-1.34962 0.9 0.0
-1.35226 0.95 0.0
-1.28528 0.25 0.0
-1.28764 0.2 0.0
-1.28931 0.35 0.0
-1.32121 0.55 0.0
-1.29848 0.5 0.0
-1.28709 0.45 0.0
-1.2982 0.4 0.0
-1.29876 0.6 0.0
-1.31647 0.65 0.0
-1.29918 0.75 0.0
-1.29904 0.7 0.0
-1.28292 0.3 0.0
-1.24687 0 0.0
-1.24702 0.05 0.0
-1.24717 0.1 0.0
-1.24732 0.15 0.0
-1.29946 0.85 0.0
-1.29932 0.8 0.0
-1.29987 1 0.0
-1.29974 0.95 0.0
-1.30462 0.9 0.0
-1.24762 0.25 0.0
-1.23747 0.2 0.0
-1.24792 0.35 0.0
-1.22807 0.4 0.0
-1.27111 0.55 0.0
-1.24837 0.5 0.0
-1.24822 0.45 0.0
-1.24867 0.6 0.0
-1.26639 0.65 0.0
-1.26167 0.75 0.0
-1.24897 0.7 0.0
-1.23277 0.3 0.0
-1.19667 0 0.0
-1.19683 0.05 0.0
-1.18964 0.15 0.0
-1.19198 0.1 0.0
-1.25695 0.85 0.0
-1.24927 0.8 0.0
-1.25223 0.95 0.0
-1.24987 1 0.0
-1.24957 0.9 0.0
-1.1873 0.2 0.0
-1.18496 0.25 0.0
-1.18028 0.35 0.0
-1.17794 0.4 0.0
-1.1981 0.45 0.0
-1.19842 0.55 0.0
-1.19826 0.5 0.0
-1.19858 0.6 0.0
-1.19874 0.65 0.0
-1.19906 0.75 0.0
-1.1989 0.7 0.0
-1.18262 0.3 0.0
-1.14646 0 0.0
-1.14663 0.05 0.0
-1.1418 0.1 0.0
-1.13713 0.2 0.0
-1.14697 0.15 0.0
-1.20691 0.85 0.0
-1.20926 0.8 0.0
-1.20221 0.95 0.0
-1.19986 1 0.0
-1.20456 0.9 0.0
-1.13997 0.3 0.0
-1.14731 0.25 0.0
-1.13781 0.4 0.0
-1.13014 0.35 0.0
-1.12548 0.45 0.0
-1.14815 0.5 0.0
-1.15962 0.55 0.0
-1.14849 0.6 0.0
-1.15745 0.65 0.0
-1.16155 0.75 0.0
-1.14917 0.8 0.0
-1.14883 0.7 0.0
-1.09625 0 0.0
-1.09661 0.1 0.0
-1.09393 0.05 0.0
-1.09697 0.2 0.0
-1.08929 0.15 0.0
-1.15687 0.85 0.0
-1.14985 1 0.0
-1.15219 0.95 0.0
-1.14951 0.9 0.0
-1.09733 0.3 0.0
-1.08465 0.25 0.0
-1.09769 0.4 0.0
-1.08 0.35 0.0
-1.08661 0.45 0.0
-1.09804 0.5 0.0
-1.12082 0.55 0.0
-1.10916 0.8 0.0
-1.10629 0.7 0.0
-1.0984 0.6 0.0
-1.11616 0.65 0.0
-1.11149 0.75 0.0
-1.04604 0 0.0
-1.04623 0.05 0.0
-1.04642 0.1 0.0
-1.0468 0.2 0.0
-1.03911 0.15 0.0
-1.09948 0.9 0.0
-1.0993 0.85 0.0
-1.09984 1 0.0
-1.09966 0.95 0.0
-1.04718 0.3 0.0
-1.03449 0.25 0.0
-1.04756 0.4 0.0
-1.02986 0.35 0.0
-1.04775 0.45 0.0
-1.04794 0.5 0.0
-1.04813 0.55 0.0
-1.05911 0.8 0.0
-1.04831 0.6 0.0
-1.06376 0.7 0.0
-1.0485 0.65 0.0
-1.04888 0.75 0.0
-0.995833 0 0.0
-0.991231 0.1 0.0
-0.996033 0.05 0.0
-0.986629 0.2 0.0
-0.98893 0.15 0.0
-1.05447 0.9 0.0
-1.04926 0.85 0.0
-1.04983 1 0.0
-1.04964 0.95 0.0
-0.984328 0.25 0.0
-0.99703 0.3 0.0
-0.997429 0.4 0.0
-0.997628 0.45 0.0
-0.979726 0.35 0.0
-0.997827 0.5 0.0
-0.998027 0.55 0.0
-0.998226 0.6 0.0
-0.961416 0.475 0.0
-1.00907 0.8 0.0
-0.998426 0.65 0.0
-0.998625 0.7 0.0
-1.01138 0.75 0.0
-0.945625 0 0.0
-0.946044 0.1 0.0
-0.943334 0.05 0.0
-0.946463 0.2 0.0
-0.938752 0.15 0.0
-1.00444 0.9 0.0
-1.00675 0.85 0.0
-0.999821 1 0.0
-1.00213 0.95 0.0
-0.93417 0.25 0.0
-0.946881 0.3 0.0
-0.9473 0.4 0.0
-0.929588 0.35 0.0
-0.925005 0.45 0.0
-0.960371 0.525 0.0
-0.959325 0.575 0.0
-0.958279 0.625 0.0
-0.922714 0.5 0.0
-0.959017 0.8 0.0
-0.957233 0.675 0.0
-0.952999 0.7125 0.0
-0.948766 0.75 0.0
-0.895417 0 0.0
-0.895855 0.1 0.0
-0.893136 0.05 0.0
-0.896294 0.2 0.0
-0.888573 0.15 0.0
-0.949184 0.85 0.0
-0.954415 0.9 0.0
-0.949812 1 0.0
-0.949603 0.95 0.0
-0.884011 0.25 0.0
-0.896733 0.3 0.0
-0.874887 0.45 0.0
-0.879449 0.35 0.0
-0.897171 0.4 0.0
-0.920423 0.55 0.0
-0.918132 0.6 0.0
-0.915841 0.65 0.0
-0.872606 0.5 0.0
-0.908968 0.8 0.0
-0.91355 0.7 0.0
-0.898707 0.75 0.0
-0.845208 0 0.0
-0.845438 0.05 0.0
-0.845667 0.1 0.0
-0.845896 0.15 0.0
-0.833853 0.25 0.0
-0.846126 0.2 0.0
-0.899146 0.85 0.0
-0.904386 0.9 0.0
-0.899584 0.95 0.0
-0.899804 1 0.0
-0.838062 0.35 0.0
[...]
POINT_DATA 10839
VECTORS Velocity float
0.21 0 0.0
0.24 0 0.0
0.2275 0 0.0
0.2475 0 0.0
0.25 0 0.0
0.2475 0 0.0
0 0 0.0
0.0475 0 0.0
0.1275 0 0.0
0.09 0 0.0
0.09 0 0.0
0.1275 0 0.0
0.1875 0 0.0
0.16 0 0.0
0.195557 -2.4372e-05 0.0
0.242841 -3.3194e-05 0.0
0.215776 -2.89872e-05 0.0
0.231406 -3.2661e-05 0.0
0.248725 -3.53348e-05 0.0
0.24 0 0.0
0.24284 -3.31195e-05 0.0
0.24852 -3.40299e-05 0.0
0 0 0.0
0.062224 -4.28131e-06 0.0
0.0322271 -2.83107e-06 0.0
0.16 0 0.0
0.1875 0 0.0
0.21 0 0.0
0.2275 0 0.0
0.193592 -2.73559e-05 0.0
0.138887 -1.52291e-05 0.0
0 0 0.0
0.0475 0 0.0
0.0998414 -1.06011e-05 0.0
0.0622205 -4.32976e-06 0.0
0.0998462 -1.10746e-05 0.0
0.138891 -1.53622e-05 0.0
0.17438 -3.84132e-05 0.0
0.201606 -5.25596e-05 0.0
0.235787 -6.41087e-05 0.0
0.244085 -6.70658e-05 0.0
0.223602 -8.59074e-05 0.0
0.249751 -7.00579e-05 0.0
0.249044 -7.80515e-05 0.0
0.231404 -3.31887e-05 0.0
0.244081 -6.62739e-05 0.0
0 0 0.0
0.0361084 -5.46429e-06 0.0
0.0736129 -1.52498e-05 0.0
0.0622496 -1.67008e-05 0.0
0.17437 -3.78532e-05 0.0
0.220162 -5.25222e-05 0.0
0.201594 -5.26383e-05 0.0
0.115548 -2.27541e-05 0.0
0.146676 -3.51974e-05 0.0
0 0 0.0
0.0360873 -3.68725e-06 0.0
0.0693659 -1.19366e-05 0.0
0.0899832 -2.36398e-05 0.0
0.109391 -3.19399e-05 0.0
0.146692 -3.45122e-05 0.0
0.178902 -6.43421e-05 0.0
0.206293 -8.40488e-05 0.0
0.214501 -0.000113167 0.0
0.238527 -0.000100404 0.0
0.24735 -0.000104533 0.0
0.229607 -0.000127727 0.0
0.226323 -9.0254e-05 0.0
0.249983 -0.000105045 0.0
0.246426 -0.000102207 0.0
0.23668 -9.62534e-05 0.0
0 0 0.0
0.0322511 -6.17204e-06 0.0
0.095697 -3.62524e-05 0.0
0.06943 -2.73233e-05 0.0
0.178876 -6.33681e-05 0.0
0.206269 -8.46846e-05 0.0
0.127476 -4.89096e-05 0.0
0.165873 -8.01478e-05 0.0
0.152325 -5.74607e-05 0.0
0 0 0.0
0.0360793 -5.29341e-06 0.0
0.0621953 -1.65285e-05 0.0
0.0956295 -3.69496e-05 0.0
0.127525 -4.93744e-05 0.0
0.156661 -7.16451e-05 0.0
0.115601 -5.66532e-05 0.0
0.193626 -0.000117959 0.0
0.218141 -0.000149161 0.0
0.24094 -0.000136062 0.0
0.247737 -0.000141089 0.0
0.25 -0.000142623 0.0
0.234398 -0.000172598 0.0
0.229576 -0.000125964 0.0
0.247727 -0.000140779 0.0
0.240919 -0.000135822 0.0
0 0 0.0
0.034488 -8.5397e-06 0.0
0.103122 -5.56446e-05 0.0
0.0623041 -2.76713e-05 0.0
0.189727 -0.000100311 0.0
0.212988 -0.000139957 0.0
0.170534 -0.000108595 0.0
0.144329 -8.06623e-05 0.0
0 0 0.0
0.0398975 -9.10033e-06 0.0
0.0997856 -5.06231e-05 0.0
0.0693205 -2.68868e-05 0.0
0.170625 -0.000108708 0.0
0.144422 -8.24018e-05 0.0
0.124378 -8.35184e-05 0.0
0.18365 -0.000137312 0.0
0.204132 -0.000164314 0.0
0.222038 -0.000193375 0.0
0.249109 -0.000187097 0.0
0.244027 -0.000182128 0.0
0.24912 -0.000187107 0.0
0.238551 -0.000219552 0.0
0.234353 -0.000171582 0.0
0.244883 -0.000197188 0.0
0 0 0.0
0.0322929 -9.04101e-06 0.0
0.0940752 -5.84713e-05 0.0
0.0652187 -3.49805e-05 0.0
0.196696 -0.000150117 0.0
0.217871 -0.00018432 0.0
0.177437 -0.000152322 0.0
0.148689 -0.000106413 0.0
0.120328 -7.45738e-05 0.0
0 0 0.0
0.03439 -8.62975e-06 0.0
0.0716432 -3.51256e-05 0.0
0.152425 -0.000119284 0.0
0.127615 -0.000103624 0.0
0.187579 -0.000170141 0.0
0.211951 -0.000211809 0.0
0.248605 -0.000232077 0.0
0.225686 -0.000239895 0.0
0.249783 -0.00023376 0.0
0.246474 -0.000229835 0.0
0.242064 -0.000268782 0.0
0.23849 -0.000218929 0.0
0 0 0.0
0.0338756 -1.13261e-05 0.0
0.0999943 -7.80183e-05 0.0
0.0695467 -4.655e-05 0.0
0.20626 -0.000198332 0.0
0.222404 -0.000231097 0.0
0.189975 -0.000206003 0.0
0.168253 -0.00016648 0.0
0.143003 -0.000127806 0.0
0.124193 -9.44052e-05 0.0
0.097083 -6.34793e-05 0.0
0 0 0.0
0.0360198 -1.09844e-05 0.0
0.0673135 -3.76332e-05 0.0
0.130336 -0.000125137 0.0
0.168483 -0.000167267 0.0
0.199473 -0.000218093 0.0
0.218379 -0.000255845 0.0
0.241992 -0.000269419 0.0
0.25 -0.000281216 0.0
0.247989 -0.00027794 0.0
0.229082 -0.000288584 0.0
0.244938 -0.000319833 0.0
0.248741 -0.000295034 0.0
0.234445 -0.000275975 0.0
0 0 0.0
0.0362342 -1.45962e-05 0.0
0.12266 -0.000128139 0.0
0.0712312 -5.50382e-05 0.0
0.208349 -0.000242361 0.0
0.225126 -0.000288275 0.0
0.198047 -0.000251523 0.0
0.177724 -0.0002084 0.0
0.146525 -0.000153816 0.0
0.119131 -0.000107583 0.0
0.0970499 -7.19799e-05 0.0
0 0 0.0
0.0349374 -1.22981e-05 0.0
0.067276 -4.23608e-05 0.0
0.152302 -0.000174745 0.0
0.178018 -0.000213325 0.0
0.210116 -0.000269742 0.0
0.244858 -0.00031971 0.0
0.24942 -0.000328437 0.0
0.232226 -0.000339223 0.0
0.244197 -0.000363667 0.0
0.249988 -0.000388025 0.0
0.249132 -0.000345036 0.0
0.235912 -0.000330227 0.0
0.212964 -0.000329095 0.0
0 0 0.0
0.0371634 -1.71908e-05 0.0
0.141112 -0.000178216 0.0
0.0999595 -0.0001079 0.0
0.066602 -5.36395e-05 0.0
0.213628 -0.000294618 0.0
0.186606 -0.000256525 0.0
0.165083 -0.00020887 0.0
0.122239 -0.000128924 0.0
0.0928643 -7.89225e-05 0.0
0 0 0.0
0.0349074 -1.37308e-05 0.0
0.0642244 -4.49869e-05 0.0
0.165598 -0.000223218 0.0
0.186969 -0.000262278 0.0
0.158125 -0.000233447 0.0
0.247091 -0.000373368 0.0
0.248691 -0.000428835 0.0
0.231052 -0.000380708 0.0
0.240526 -0.000406227 0.0
0.248757 -0.000428519 0.0
0.240202 -0.000379673 0.0
0.229256 -0.000372927 0.0
0.199183 -0.000322115 0.0
0.218635 -0.00038479 0.0
0 0 0.0
0.0346514 -1.68691e-05 0.0
0.126172 -0.000173163 0.0
0.0681808 -6.05942e-05 0.0
0.0988219 -0.000117468 0.0
0.208082 -0.000336637 0.0
0.189758 -0.000293635 0.0
0.168124 -0.000243864 0.0
0.140618 -0.000176904 0.0
0.0954068 -9.38334e-05 0.0
0 0 0.0
0.033251 -1.4053e-05 0.0
0.0660533 -5.35521e-05 0.0
0.183225 -0.000304304 0.0
0.159264 -0.000261133 0.0
0.244898 -0.000441978 0.0
0.24966 -0.000484975 0.0
0.235962 -0.000445148 0.0
0.244858 -0.000470429 0.0
0.249378 -0.000483906 0.0
0.23862 -0.000447373 0.0
0.218419 -0.000404375 0.0
0.203105 -0.000375526 0.0
0.223371 -0.000439691 0.0
0 0 0.0
0.0478089 -3.36318e-05 0.0
0.127923 -0.000197332 0.0
0.0904266 -0.000110341 0.0
0.202607 -0.000361615 0.0
0.177965 -0.000297617 0.0
0.147886 -0.000223648 0.0
0.118718 -0.000146919 0.0
0.0780242 -7.88492e-05 0.0
0 0 0.0
0.0342288 -1.65563e-05 0.0
0.187833 -0.000360037 0.0
0.160403 -0.00029044 0.0
0.246451 -0.000504628 0.0
0.249999 -0.000543593 0.0
0.24014 -0.000513542 0.0
0.247577 -0.000565831 0.0
0.239859 -0.000512791 0.0
0.227291 -0.000474808 0.0
0.209728 -0.000422561 0.0
0.227724 -0.000498733 0.0
0.210291 -0.000440621 0.0
0 0 0.0
0.0478727 -3.75294e-05 0.0
0.128018 -0.000220205 0.0
0.090509 -0.000121308 0.0
0.187169 -0.000357917 0.0
0.159616 -0.000280872 0.0
0.0471948 -3.30262e-05 0.0
0.127081 -0.000194682 0.0
0.0895862 -0.000108151 0.0
0 0 0.0
0.187909 -0.000404413 0.0
0.160493 -0.000324959 0.0
0.24742 -0.000571997 0.0
0.249999 -0.000612034 0.0
0.240172 -0.000578673 0.0
0.247594 -0.000635803 0.0
0.227244 -0.000534116 0.0
0.239826 -0.00057694 0.0
0.187093 -0.000401758 0.0
0.209665 -0.000475017 0.0
0.227765 -0.000547277 0.0
0.210356 -0.000495128 0.0
0 0 0.0
0.047943 -4.11193e-05 0.0
0.128124 -0.000244776 0.0
0.0906206 -0.000136002 0.0
0.126986 -0.000218116 0.0
0.15953 -0.00031497 0.0
0.0471351 -3.66354e-05 0.0
0.0894961 -0.000120201 0.0
0 0 0.0
0.187996 -0.000451552 0.0
0.160595 -0.000362198 0.0
0.247402 -0.000641528 0.0
0.249998 -0.000685311 0.0
0.227809 -0.00060023 0.0
0.240223 -0.000676519 0.0
0.247612 -0.000711425 0.0
0.227199 -0.000584321 0.0
0.23979 -0.000645808 0.0
0.187029 -0.000435467 0.0
0.209594 -0.000531035 0.0
0.210429 -0.000553475 0.0
0 0 0.0
0.0480256 -4.56833e-05 0.0
0.128262 -0.000275241 0.0
0.0907344 -0.000150129 0.0
0.126898 -0.000238225 0.0
0.159431 -0.000350614 0.0
0.0470624 -4.07272e-05 0.0
0.0893964 -0.00013275 0.0
0 0 0.0
0.160708 -0.000401805 0.0
0.188118 -0.000514875 0.0
0.247382 -0.000716102 0.0
0.249997 -0.000764076 0.0
0.240257 -0.000738911 0.0
0.227893 -0.000694404 0.0
0.247633 -0.000791763 0.0
0.239748 -0.00071916 0.0
0.227151 -0.000639179 0.0
0.186937 -0.000484129 0.0
0.209515 -0.000590542 0.0
0.210512 -0.000616862 0.0
0 0 0.0
0.0481086 -5.03617e-05 0.0
0.128376 -0.000300052 0.0
0.0908598 -0.000165455 0.0
0.126783 -0.000263737 0.0
0.159321 -0.000389237 0.0
0 0 0.0
0.0892851 -0.000147017 0.0
0.046989 -4.4821e-05 0.0
0.188229 -0.000573157 0.0
0.160835 -0.00044548 0.0
0.227951 -0.000757682 0.0
0.247359 -0.000797059 0.0
0.249996 -0.000849605 0.0
0.247651 -0.000859793 0.0
0.240294 -0.000804361 0.0
0.239701 -0.00079868 0.0
0.227085 -0.000710212 0.0
0.186805 -0.000549799 0.0
0.209427 -0.000655667 0.0
0.210604 -0.000684899 0.0
0 0 0.0
0.0482027 -5.53394e-05 0.0
0.0909843 -0.000179969 0.0
0.128522 -0.000330831 0.0
0.126634 -0.000295799 0.0
0.159199 -0.000430927 0.0
0 0 0.0
0.046901 -4.94579e-05 0.0
0.0891759 -0.000160324 0.0
0.188323 -0.000618747 0.0
0.160977 -0.000493186 0.0
0.228012 -0.000825986 0.0
0.240365 -0.000930612 0.0
0.247333 -0.000884953 0.0
0.249994 -0.000941957 0.0
0.247671 -0.000931619 0.0
0.239649 -0.000884708 0.0
0.227012 -0.000787227 0.0
0.186716 -0.000593336 0.0
0.209328 -0.000724938 0.0
0.210707 -0.00076012 0.0
0 0 0.0
0.0483071 -6.04834e-05 0.0
0.128712 -0.000370937 0.0
0.0911522 -0.000200353 0.0
0.126512 -0.000322108 0.0
0.159064 -0.000476225 0.0
0.0468126 -5.39897e-05 0.0
0 0 0.0
0.0890288 -0.000178664 0.0
0.161135 -0.000545468 0.0
0.188492 -0.000702016 0.0
0.228129 -0.000949145 0.0
0.240423 -0.00103353 0.0
0.247696 -0.00103332 0.0
0.247289 -0.00102327 0.0
0.249992 -0.00104459 0.0
0.23959 -0.000980245 0.0
0.2269 -0.000899312 0.0
0.186555 -0.000670708 0.0
0.209219 -0.00080143 0.0
0.210821 -0.0008424 0.0
0 0 0.0
0.0484201 -6.57986e-05 0.0
0.0913208 -0.000218758 0.0
0.16131 -0.000601282 0.0
0.128868 -0.000402 0.0
0.126356 -0.000355707 0.0
0.158945 -0.000515411 0.0
0.0467093 -6.01491e-05 0.0
0 0 0.0
0.0888937 -0.000195877 0.0
0.210928 -0.000919548 0.0
0.188609 -0.000759511 0.0
0.240473 -0.00112122 0.0
0.228224 -0.0010554 0.0
0.247739 -0.00119524 0.0
0.249988 -0.00115515 0.0
0.247262 -0.0011058 0.0
0.239524 -0.00108187 0.0
0.226822 -0.000974967 0.0
0.186446 -0.000721686 0.0
0.15875 -0.000580139 0.0
0.209098 -0.000882736 0.0
0 0 0.0
0.0914897 -0.000238176 0.0
0.0485528 -7.24481e-05 0.0
0.161466 -0.000653297 0.0
0.129101 -0.000451219 0.0
0.126184 -0.000393303 0.0
0 0 0.0
0.046595 -6.68513e-05 0.0
0.0887134 -0.00021924 0.0
0.211046 -0.00100267 0.0
0.18882 -0.000865858 0.0
0.240527 -0.00121627 0.0
0.228331 -0.00117196 0.0
0.247761 -0.00129603 0.0
0.249981 -0.00127767 0.0
0.247232 -0.00119657 0.0
0.158606 -0.000624644 0.0
0.208985 -0.000956973 0.0
0.23945 -0.00119132 0.0
0.226738 -0.00105684 0.0
0.186291 -0.000795021 0.0
0 0 0.0
0.0486824 -7.83371e-05 0.0
0.0916923 -0.000260936 0.0
0.161682 -0.000723067 0.0
0.129331 -0.000498734 0.0
0.0885304 -0.000242481 0.0
0.125964 -0.000440895 0.0
0 0 0.0
0.0464621 -7.49685e-05 0.0
0.211197 -0.00111345 0.0
0.189015 -0.000962862 0.0
0.240599 -0.00134832 0.0
0.228448 -0.00130264 0.0
0.247786 -0.00140447 0.0
0.249974 -0.00141326 0.0
0.247166 -0.00137649 0.0
0.158414 -0.000686648 0.0
0.239367 -0.00131249 0.0
0.208863 -0.00103381 0.0
0.226585 -0.00120237 0.0
0.186075 -0.00089666 0.0
0 0 0.0
0.0919425 -0.000290379 0.0
0.0488305 -8.56472e-05 0.0
0.161972 -0.000820137 0.0
0.129586 -0.000553083 0.0
0.0883508 -0.000266122 0.0
0.125754 -0.000487698 0.0
0 0 0.0
0.0463194 -8.39011e-05 0.0
0.18923 -0.00107437 0.0
0.211367 -0.00123998 0.0
0.240678 -0.00149854 0.0
0.247819 -0.00155295 0.0
0.228575 -0.00144904 0.0
0.249961 -0.001559 0.0
0.247111 -0.00152043 0.0
0.239274 -0.00144122 0.0
0.249518 -0.00168177 0.0
0.158202 -0.00075297 0.0
0.226453 -0.00132018 0.0
0.208655 -0.00116435 0.0
0.185932 -0.000960008 0.0
0 0 0.0
0.0921739 -0.000319176 0.0
0.0490057 -9.50277e-05 0.0
0.162192 -0.000897217 0.0
0.129873 -0.000616612 0.0
0.0881328 -0.000294351 0.0
0.12556 -0.000529495 0.0
0 0 0.0
0.0461705 -9.32161e-05 0.0
0.189471 -0.00120145 0.0
0.211554 -0.00138446 0.0
0.240756 -0.00166274 0.0
0.228715 -0.00161781 0.0
0.247861 -0.0018044 0.0
0.249127 -0.00166438 0.0
0.243747 -0.00159972 0.0
0.233385 -0.00149067 0.0
0.249929 -0.00181217 0.0
0.157974 -0.000822442 0.0
0.218042 -0.0013435 0.0
0.203257 -0.00121428 0.0
0.185675 -0.00106953 0.0
0 0 0.0
0.092456 -0.000357191 0.0
0.049188 -0.00010471 0.0
0.162494 -0.00100814 0.0
0.130196 -0.00069342 0.0
0.125276 -0.000588165 0.0
0.0878934 -0.000324571 0.0
0 0 0.0
0.045989 -0.000103251 0.0
0.18974 -0.00135031 0.0
0.21176 -0.00155054 0.0
0.247884 -0.00199905 0.0
0.228865 -0.0018079 0.0
0.240846 -0.00185209 0.0
0.247005 -0.00176707 0.0
0.239094 -0.00167162 0.0
0.226202 -0.00153134 0.0
0.249893 -0.00200146 0.0
0.157725 -0.000894802 0.0
0.208338 -0.00134996 0.0
0.185445 -0.00116222 0.0
0 0 0.0
0.0493845 -0.00011672 0.0
0.0927755 -0.000405147 0.0
0.130505 -0.000771033 0.0
0.190038 -0.00152225 0.0
0.162835 -0.00113997 0.0
0.125006 -0.000639619 0.0
0.0876325 -0.000355476 0.0
0.0457955 -0.000114127 0.0
0 0 0.0
0.228997 -0.00198686 0.0
0.211987 -0.00174498 0.0
0.247901 -0.00216978 0.0
0.240932 -0.00206813 0.0
0.226024 -0.0016675 0.0
0.246915 -0.00194232 0.0
0.238954 -0.00182941 0.0
0.249849 -0.00221053 0.0
0.185198 -0.00125314 0.0
0.157402 -0.000976899 0.0
0.208055 -0.00149923 0.0
0 0 0.0
0.0496184 -0.000134724 0.0
0.0931819 -0.000470072 0.0
0.130911 -0.000880942 0.0
0.190283 -0.001677 0.0
0.163298 -0.00133888 0.0
0.124718 -0.000688064 0.0
0.0873246 -0.000387263 0.0
0.0455873 -0.000123983 0.0
0 0 0.0
0.124408 -0.00073279 0.0
0.229135 -0.00217915 0.0
0.212312 -0.00204883 0.0
0.241055 -0.00242011 0.0
0.247911 -0.00235223 0.0
0.225745 -0.00186116 0.0
0.238798 -0.00199626 0.0
0.246809 -0.00213527 0.0
0.24978 -0.00244246 0.0
0.184925 -0.00134256 0.0
0.157105 -0.00104533 0.0
0.207807 -0.00161881 0.0
0 0 0.0
0.0498881 -0.000155268 0.0
0.093611 -0.000545931 0.0
0.131374 -0.00101772 0.0
0.190642 -0.00190721 0.0
0.163741 -0.00154018 0.0
0.0453581 -0.000135178 0.0
0.0870197 -0.000415253 0.0
0 0 0.0
0.124132 -0.000761809 0.0
0.22931 -0.002458 0.0
0.212588 -0.00232515 0.0
0.241136 -0.00270974 0.0
0.247908 -0.00261981 0.0
0.225542 -0.00198768 0.0
0.238614 -0.00217471 0.0
0.249693 -0.00269982 0.0
0.246611 -0.00244436 0.0
0.1847 -0.001404 0.0
0.156786 -0.00110321 0.0
0.20753 -0.00173355 0.0
0 0 0.0
0.050201 -0.000182054 0.0
0.0941088 -0.000638123 0.0
0.131986 -0.00120986 0.0
0.191137 -0.00225708 0.0
0.212883 -0.00264915 0.0
0.164233 -0.00178288 0.0
0.0451315 -0.000142579 0.0
0.086703 -0.000437211 0.0
0 0 0.0
0.123791 -0.000788482 0.0
0.229553 -0.00288968 0.0
0.241196 -0.00297539 0.0
0.24789 -0.00291886 0.0
0.249603 -0.00291421 0.0
0.225321 -0.00211132 0.0
0.238387 -0.00237025 0.0
0.246432 -0.00268004 0.0
0.156443 -0.00115012 0.0
0.184376 -0.00148244 0.0
0.207214 -0.0018468 0.0
0 0 0.0
0.0505953 -0.000216844 0.0
0.0946955 -0.000755759 0.0
0.132609 -0.00142021 0.0
0.191468 -0.0025105 0.0
0.213193 -0.00301605 0.0
0.16479 -0.00207036 0.0
0.0448811 -0.000149086 0.0
0.0863753 -0.000452083 0.0
0 0 0.0
0.15615 -0.00117131 0.0
0.0860471 -0.000455804 0.0
0.123382 -0.000802478 0.0
0.229735 -0.00328752 0.0
0.241242 -0.0032564 0.0
0.247816 -0.00341695 0.0
0.249499 -0.00313915 0.0
0.246268 -0.00288112 0.0
0.225011 -0.00226609 0.0
0.238012 -0.00265995 0.0
0.183919 -0.00156303 0.0
0.206913 -0.00194494 0.0
0.229888 -0.00363848 0.0
0 0 0.0
0.0510393 -0.000257854 0.0
0.133329 -0.0016728 0.0
0.0953818 -0.000898619 0.0
0.213527 -0.00345325 0.0
0.192066 -0.0029972 0.0
0.165413 -0.00240984 0.0
0.0446156 -0.000150586 0.0
0 0 0.0
0.183609 -0.00160615 0.0
0.155757 -0.00119057 0.0
0.123015 -0.000803229 0.0
0.0443501 -0.000155445 0.0
0.0857162 -0.000453328 0.0
0.241292 -0.00366271 0.0
0.247744 -0.00372362 0.0
0.249313 -0.00347273 0.0
0.249145 -0.00375197 0.0
0.246069 -0.00309095 0.0
0.224642 -0.00242992 0.0
0.237663 -0.00288517 0.0
0.206572 -0.00202853 0.0
0.230022 -0.00403299 0.0
0.0515427 -0.000305716 0.0
0 0 0.0
0.134022 -0.00191909 0.0
0.0961851 -0.00106377 0.0
0.213872 -0.00394981 0.0
0.192457 -0.00334123 0.0
0.166117 -0.00280925 0.0
0 0 0.0
0.183164 -0.00164386 0.0
0.15525 -0.00118936 0.0
0.122703 -0.000783141 0.0
0.0441102 -0.000153748 0.0
0.0853932 -0.000442626 0.0
0.241308 -0.00432656 0.0
0.247654 -0.00404866 0.0
0.248936 -0.00404441 0.0
0.245618 -0.00351856 0.0
0.224219 -0.00259149 0.0
0.237267 -0.00312156 0.0
0.205976 -0.00215943 0.0
0.230194 -0.0045802 0.0
0 0 0.0
0.0521679 -0.00036616 0.0
0.134952 -0.00225596 0.0
0.0970373 -0.00124106 0.0
0.166903 -0.00326557 0.0
0.214232 -0.00452339 0.0
0.193173 -0.00399031 0.0
0 0 0.0
0 0 0.0
0.182655 -0.00167508 0.0
0.154794 -0.0011753 0.0
0.122332 -0.000755241 0.0
0.0850885 -0.000424927 0.0
0.0438654 -0.000149385 0.0
0.241278 -0.00487131 0.0
0.24748 -0.00452516 0.0
0.236887 -0.00332581 0.0
0.248608 -0.00447509 0.0
0.245205 -0.00385954 0.0
0.223716 -0.00276366 0.0
0.205428 -0.00225275 0.0
0.241222 -0.00536357 0.0
0.230329 -0.00519942 0.0
0.0529106 -0.000434978 0.0
0.0981297 -0.0014613 0.0
0.136024 -0.00264867 0.0
0.167609 -0.00369099 0.0
0.214609 -0.00516798 0.0
0.193633 -0.00445371 0.0
0 0 0.0
0 0 0.0
0.154409 -0.00114806 0.0
0.18195 -0.00169231 0.0
0.0848313 -0.000399626 0.0
0.121905 -0.000710024 0.0
0.0436221 -0.000145104 0.0
0.247138 -0.00529099 0.0
0.248187 -0.00495821 0.0
0.204812 -0.00234255 0.0
0.236454 -0.00353426 0.0
0.244839 -0.0041465 0.0
0.222912 -0.00300166 0.0
0.241138 -0.00587732 0.0
0.230502 -0.00615851 0.0
0.214989 -0.0059029 0.0
0.0538402 -0.000520778 0.0
0.0994036 -0.001726 0.0
0.137455 -0.00316716 0.0
0.168587 -0.0042724 0.0
0.19448 -0.00531129 0.0
0 0 0.0
0 0 0.0
0.1538 -0.00110408 0.0
0.181302 -0.00170878 0.0
0.084551 -0.000366621 0.0
0.121545 -0.000665517 0.0
0.0433976 -0.000137221 0.0
0.244411 -0.00445457 0.0
0.247683 -0.0054789 0.0
0.246789 -0.00591892 0.0
0.204105 -0.00243431 0.0
0.235828 -0.00382261 0.0
0.222192 -0.00320463 0.0
0.180599 -0.00172358 0.0
0.240888 -0.00691605 0.0
0 0 0.0
0.230563 -0.00698896 0.0
0.195222 -0.00611027 0.0
0.215373 -0.00671951 0.0
0.0548408 -0.00061326 0.0
0.138685 -0.00361815 0.0
0.101054 -0.0020699 0.0
0.16991 -0.00510234 0.0
0 0 0.0
0 0 0.0
0 0 0.0
0 0 0.0
0 0 0.0
0.0432103 -0.000128905 0.0
0.121197 -0.000621954 0.0
0.153256 -0.00107134 0.0
0.0843254 -0.000344154 0.0
0.243767 -0.00487111 0.0
0.247066 -0.0060622 0.0
0.246373 -0.00660685 0.0
0.22152 -0.00336278 0.0
0.203298 -0.00253287 0.0
0.234763 -0.00426393 0.0
0.202538 -0.00262219 0.0
0.180014 -0.0017358 0.0
0.240604 -0.00777316 0.0
0.230598 -0.00789044 0.0
0 0 0.0
9.44556e-05 -3.73556e-05 0.0
0 0 0.0
-0.000370911 0.00221029 0.0
0.215769 -0.00764938 0.0
0.195829 -0.00676514 0.0
0.0561363 -0.000736899 0.0
0.1403 -0.00420588 0.0
0.102806 -0.00243534 0.0
0.171178 -0.00590002 0.0
0 0 0.0
0 0 0.0
0 0 0.0
-0.00027875 0.00121824 0.0
-3.04632e-05 -9.63066e-05 0.0
1.82141e-05 -3.78209e-05 0.0
0 0 0.0
0.0430137 -0.00012433 0.0
0.120901 -0.000587417 0.0
0.152685 -0.00104601 0.0
0.0840851 -0.000321424 0.0
0.24301 -0.0053403 0.0
0.246332 -0.00670149 0.0
0.245845 -0.00736167 0.0
0.220767 -0.00354653 0.0
0.234041 -0.00455649 0.0
0.201699 -0.00271742 0.0
0.178972 -0.00177785 0.0
0.240253 -0.00870646 0.0
0.233455 -0.00881295 0.0
0.223943 -0.00869178 0.0
0 0 0.0
0.000115579 1.09937e-05 0.0
0 0 0.0
0 0 0.0
-0.00130902 0.00493833 0.0
-0.00127301 0.00327164 0.0
0.211691 -0.00837049 0.0
0.196678 -0.00774254 0.0
0.10463 -0.00282137 0.0
0.0575266 -0.000881523 0.0
0.142135 -0.00489402 0.0
0.172572 -0.00680587 0.0
0 0 0.0
-0.000466703 0.000621135 0.0
-0.000873106 0.00171239 0.0
-0.000300533 0.00024781 0.0
-0.000273074 0.000250082 0.0
0 0 0.0
0.04283 -0.000121386 0.0
0.120562 -0.000560944 0.0
0.152091 -0.00102713 0.0
0.0838781 -0.000309155 0.0
0.242119 -0.00585018 0.0
0.245469 -0.00739685 0.0
0.245202 -0.00818986 0.0
0.219355 -0.0038795 0.0
0.233236 -0.00485414 0.0
0.200606 -0.00286244 0.0
0.151479 -0.00104469 0.0
0.17805 -0.00184279 0.0
0.239893 -0.00951268 0.0
0.230527 -0.00962782 0.0
0.216415 -0.00950565 0.0
0 0 0.0
-0.000175209 0.000143622 0.0
0 0 0.0
0 0 0.0
0 0 0.0
0 0 0.0
-0.00231329 0.00347969 0.0
-0.000360564 0.00422443 0.0
-0.001328 0.00636897 0.0
-0.00309932 0.00833883 0.0
-0.00263789 0.0057387 0.0
0 0 0.0
-5.55115e-05 0.00617422 0.0
0.197807 -0.00917112 0.0
0.173797 -0.00765212 0.0
0 0 0.0
0.059355 -0.00108362 0.0
0.106952 -0.00334397 0.0
0.144557 -0.0058841 0.0
0 0 0.0
0 0 0.0
-0.00141188 0.00170113 0.0
-0.00109616 0.000973682 0.0