# vtk DataFile Version 3.0
Mesh NS-CD Problem
ASCII
DATASET UNSTRUCTURED_GRID
POINTS 10839 float
-2 0.3 0.0
-2 0.4 0.0
-2 0.35 0.0
-2 0.45 0.0
-2 0.5 0.0
-2 0.55 0.0
-2 0 0.0
-2 0.05 0.0
-2 0.85 0.0
-2 0.9 0.0
-2 0.1 0.0
-2 0.15 0.0
-2 0.25 0.0
-2 0.2 0.0
-1.96653 0.266667 0.0
-1.96524 0.415385 0.0
-1.96485 0.315 0.0
-1.96348 0.363636 0.0
-1.96414 0.464286 0.0
-2 0.6 0.0
-1.96538 0.584615 0.0
-1.96538 0.538462 0.0
-1.94979 0 0.0
-1.96653 0.0666666 0.0
-1.93306 0.0333333 0.0
-2 0.8 0.0
-2 0.75 0.0
-2 0.7 0.0
-2 0.65 0.0
-1.96249 0.7375 0.0
-1.96666 0.833333 0.0
-2 1 0.0
-2 0.95 0.0
-1.96249 0.8875 0.0
-1.96666 0.933333 0.0
-1.96234 0.1125 0.0
-1.96653 0.166667 0.0
-1.93724 0.225 0.0
-1.92971 0.28 0.0
-1.93048 0.380769 0.0
-1.93048 0.423077 0.0
-1.89958 0.3375 0.0
-1.9292 0.484203 0.0
-1.92117 0.530907 0.0
-1.96363 0.636364 0.0
-1.93076 0.576923 0.0
-1.89958 0 0.0
-1.88703 0.0375 0.0
-1.90963 0.08 0.0
-1.86611 0.0666666 0.0
-1.93749 0.775 0.0
-1.93635 0.672727 0.0
-1.92999 0.72 0.0
-1.93332 0.866667 0.0
-1.92856 0.821429 0.0
-1.94999 1 0.0
-1.92499 0.9625 0.0
-1.92499 0.925 0.0
-1.89998 0.9 0.0
-1.89958 0.125 0.0
-1.92827 0.178571 0.0
-1.89958 0.233333 0.0
-1.89045 0.290909 0.0
-1.86096 0.311538 0.0
-1.89241 0.392857 0.0
-1.89334 0.448489 0.0
-1.85655 0.357143 0.0
-1.89614 0.653846 0.0
-1.89427 0.504121 0.0
-1.8952 0.559753 0.0
-1.89614 0.615385 0.0
-1.84937 0 0.0
-1.83264 0.0333333 0.0
-1.85655 0.107143 0.0
-1.81172 0.075 0.0
-1.89998 0.766667 0.0
-1.89089 0.709091 0.0
-1.87498 0.85 0.0
-1.85998 0.79 0.0
-1.88748 0.8125 0.0
-1.89998 1 0.0
-1.88748 0.9625 0.0
-1.86664 0.933333 0.0
-1.85712 0.892857 0.0
-1.87448 0.15 0.0
-1.86611 0.194444 0.0
-1.83264 0.133333 0.0
-1.83264 0.2625 0.0
-1.82068 0.321429 0.0
-1.85664 0.404762 0.0
-1.85674 0.452381 0.0
-1.85683 0.5 0.0
-1.81184 0.375 0.0
-1.85712 0.642857 0.0
-1.85693 0.547619 0.0
-1.85702 0.595238 0.0
-1.79917 0 0.0
-1.78482 0.0357143 0.0
-1.79917 0.116667 0.0
-1.76569 0.0666666 0.0
-1.85452 0.745455 0.0
-1.82689 0.692308 0.0
-1.81815 0.781818 0.0
-1.82497 0.825 0.0
-1.84997 1 0.0
-1.8333 0.958333 0.0
-1.81247 0.8875 0.0
-1.81247 0.925 0.0
-1.81742 0.218182 0.0
-1.82427 0.175 0.0
-1.77634 0.145455 0.0
-1.79144 0.242308 0.0
-1.78482 0.285714 0.0
-1.77469 0.332653 0.0
-1.81215 0.529762 0.0
-1.81194 0.422619 0.0
-1.81203 0.470238 0.0
-1.76714 0.392857 0.0
-1.81234 0.625 0.0
-1.79732 0.571429 0.0
-1.74896 0 0.0
-1.73222 0.0333333 0.0
-1.75398 0.105 0.0
-1.71883 0.07 0.0
-1.79227 0.730769 0.0
-1.78007 0.679121 0.0
-1.75765 0.769231 0.0
-1.78178 0.818182 0.0
-1.78996 0.86 0.0
-1.79996 1 0.0
-1.78568 0.964286 0.0
-1.76663 0.922222 0.0
-1.76569 0.1875 0.0
-1.73222 0.15 0.0
-1.74896 0.25 0.0
-1.73714 0.304762 0.0
-1.76743 0.537202 0.0
-1.72869 0.343878 0.0
-1.76732 0.485119 0.0
-1.76723 0.440476 0.0
-1.72243 0.410714 0.0
-1.76757 0.607143 0.0
-1.69875 0 0.0
-1.68369 0.035 0.0
-1.69875 0.1125 0.0
-1.66528 0.075 0.0
-1.74341 0.708974 0.0
-1.73324 0.665934 0.0
-1.70441 0.74478 0.0
-1.71423 0.785714 0.0
-1.72303 0.826923 0.0
-1.74541 0.854545 0.0
-1.74541 0.890909 0.0
-1.74996 1 0.0
-1.73745 0.9625 0.0
-1.71359 0.927273 0.0
-1.68716 0.153846 0.0
-1.7131 0.214286 0.0
-1.70725 0.275 0.0
-1.69712 0.321939 0.0
-1.72279 0.589286 0.0
-1.72261 0.5 0.0
-1.7227 0.544643 0.0
-1.6827 0.355102 0.0
-1.67773 0.428571 0.0
-1.70763 0.464286 0.0
-1.70369 0.62449 0.0
-1.64854 0 0.0
-1.63181 0.0375 0.0
-1.64137 0.142857 0.0
-1.61764 0.0769231 0.0
-1.69458 0.703846 0.0
-1.67471 0.657437 0.0
-1.66143 0.727637 0.0
-1.67125 0.768571 0.0
-1.67851 0.821429 0.0
-1.68841 0.861538 0.0
-1.70904 0.890909 0.0
-1.69995 1 0.0
-1.68176 0.963636 0.0
-1.67267 0.927273 0.0
-1.65427 0.187143 0.0
-1.66718 0.231429 0.0
-1.66554 0.3 0.0
-1.67802 0.571429 0.0
-1.67792 0.523809 0.0
-1.6367 0.366327 0.0
-1.63682 0.423469 0.0
-1.62568 0.502976 0.0
-1.6629 0.470238 0.0
-1.65254 0.618367 0.0
-1.6059 0.307143 0.0
-1.59833 0 0.0
-1.58288 0.0384615 0.0
-1.60563 0.169643 0.0
-1.58179 0.112271 0.0
-1.56964 0.0714286 0.0
-1.64574 0.690385 0.0
-1.62827 0.751429 0.0
-1.63371 0.791071 0.0
-1.64279 0.857143 0.0
-1.65378 0.896154 0.0
-1.64994 1 0.0
-1.6363 0.963636 0.0
-1.61916 0.930769 0.0
-1.61345 0.209107 0.0
-1.62126 0.248571 0.0
-1.56989 0.196429 0.0
-1.63324 0.553571 0.0
-1.58846 0.535714 0.0
-1.59408 0.361905 0.0
-1.59161 0.402211 0.0
-1.58832 0.464286 0.0
-1.61504 0.598581 0.0
-1.59683 0.64359 0.0
-1.57899 0.274107 0.0
-1.56176 0.322381 0.0
-1.54812 0 0.0
-1.53378 0.0357143 0.0
-1.54593 0.147619 0.0
-1.53385 0.0732143 0.0
-1.53393 0.110714 0.0
-1.58522 0.704286 0.0
-1.58709 0.745 0.0
-1.58896 0.785714 0.0
-1.60695 0.830357 0.0
-1.60707 0.892857 0.0
-1.59993 1 0.0
-1.58454 0.965385 0.0
-1.57135 0.928571 0.0
-1.55209 0.241071 0.0
-1.5291 0.198214 0.0
-1.56936 0.570918 0.0
-1.54369 0.517857 0.0
-1.5464 0.380952 0.0
-1.54564 0.427721 0.0
-1.54488 0.47449 0.0
-1.55026 0.606122 0.0
-1.54222 0.677143 0.0
-1.52943 0.282857 0.0
-1.52143 0.33619 0.0
-1.49792 0 0.0
-1.49802 0.05 0.0
-1.49822 0.15 0.0
-1.49312 0.1 0.0
-1.5423 0.717143 0.0
-1.54419 0.767857 0.0
-1.54727 0.819048 0.0
-1.57122 0.861905 0.0
-1.53553 0.914286 0.0
-1.54992 1 0.0
-1.53563 0.964286 0.0
-1.49842 0.25 0.0
-1.48831 0.2 0.0
-1.5214 0.558929 0.0
-1.49891 0.5 0.0
-1.49871 0.4 0.0
-1.47631 0.45 0.0
-1.49911 0.6 0.0
-1.49921 0.65 0.0
-1.49931 0.7 0.0
-1.48111 0.35 0.0
-1.48351 0.3 0.0
-1.44771 0 0.0
-1.44782 0.05 0.0
-1.44804 0.15 0.0
-1.44793 0.1 0.0
-1.49941 0.75 0.0
-1.49951 0.8 0.0
-1.49981 0.95 0.0
-1.49961 0.85 0.0
-1.49971 0.9 0.0
-1.49991 1 0.0
-1.44826 0.25 0.0
-1.43815 0.2 0.0
-1.47151 0.55 0.0
-1.44881 0.5 0.0
-1.44859 0.4 0.0
-1.42619 0.45 0.0
-1.44913 0.65 0.0
-1.44902 0.6 0.0
-1.44935 0.75 0.0
-1.44924 0.7 0.0
-1.43972 0.35 0.0
-1.43336 0.3 0.0
-1.3975 0 0.0
-1.39762 0.05 0.0
-1.39786 0.15 0.0
-1.39274 0.1 0.0
-1.44957 0.85 0.0
-1.44946 0.8 0.0
-1.4523 0.95 0.0
-1.44968 0.9 0.0
-1.4499 1 0.0
-1.3981 0.25 0.0
-1.38798 0.2 0.0
-1.42141 0.55 0.0
-1.3987 0.5 0.0
-1.39834 0.35 0.0
-1.37845 0.4 0.0
-1.37607 0.45 0.0
-1.40784 0.65 0.0
-1.39894 0.6 0.0
-1.41185 0.75 0.0
-1.39918 0.7 0.0
-1.38322 0.3 0.0
-1.34729 0 0.0
-1.34492 0.05 0.0
-1.34018 0.15 0.0
-1.34255 0.1 0.0
-1.40707 0.85 0.0
-1.39941 0.8 0.0
-1.39977 0.95 0.0
-1.39965 0.9 0.0
-1.39989 1 0.0
-1.33781 0.2 0.0
-1.33544 0.25 0.0
-1.37131 0.55 0.0
-1.34859 0.5 0.0
-1.33833 0.4 0.0
-1.3307 0.35 0.0
-1.32595 0.45 0.0
-1.34885 0.6 0.0
-1.36655 0.65 0.0
-1.36179 0.75 0.0
-1.34911 0.7 0.0
-1.33307 0.3 0.0
-1.29708 0 0.0
-1.29722 0.05 0.0
-1.2975 0.15 0.0
-1.29236 0.1 0.0
-1.35703 0.85 0.0
-1.34937 0.8 0.0
-1.34988 1 0.0
-1.34962 0.9 0.0
-1.35226 0.95 0.0
-1.28528 0.25 0.0
-1.28764 0.2 0.0
-1.28931 0.35 0.0
-1.32121 0.55 0.0
-1.29848 0.5 0.0
-1.28709 0.45 0.0
-1.2982 0.4 0.0
-1.29876 0.6 0.0
-1.31647 0.65 0.0
-1.29918 0.75 0.0
-1.29904 0.7 0.0
-1.28292 0.3 0.0
-1.24687 0 0.0
-1.24702 0.05 0.0
-1.24717 0.1 0.0
-1.24732 0.15 0.0
-1.29946 0.85 0.0
-1.29932 0.8 0.0
-1.29987 1 0.0
-1.29974 0.95 0.0
-1.30462 0.9 0.0
-1.24762 0.25 0.0
-1.23747 0.2 0.0
-1.24792 0.35 0.0
-1.22807 0.4 0.0
-1.27111 0.55 0.0
-1.24837 0.5 0.0
-1.24822 0.45 0.0
-1.24867 0.6 0.0
-1.26639 0.65 0.0
-1.26167 0.75 0.0
-1.24897 0.7 0.0
-1.23277 0.3 0.0
-1.19667 0 0.0
-1.19683 0.05 0.0
-1.18964 0.15 0.0
-1.19198 0.1 0.0
-1.25695 0.85 0.0
-1.24927 0.8 0.0
-1.25223 0.95 0.0
-1.24987 1 0.0
-1.24957 0.9 0.0
-1.1873 0.2 0.0
-1.18496 0.25 0.0
-1.18028 0.35 0.0
-1.17794 0.4 0.0
-1.1981 0.45 0.0
-1.19842 0.55 0.0
-1.19826 0.5 0.0
-1.19858 0.6 0.0
-1.19874 0.65 0.0
-1.19906 0.75 0.0
-1.1989 0.7 0.0
-1.18262 0.3 0.0
-1.14646 0 0.0
-1.14663 0.05 0.0
-1.1418 0.1 0.0
-1.13713 0.2 0.0
-1.14697 0.15 0.0
-1.20691 0.85 0.0
-1.20926 0.8 0.0
-1.20221 0.95 0.0
-1.19986 1 0.0
-1.20456 0.9 0.0
-1.13997 0.3 0.0
-1.14731 0.25 0.0
-1.13781 0.4 0.0
-1.13014 0.35 0.0
-1.12548 0.45 0.0
-1.14815 0.5 0.0
-1.15962 0.55 0.0
-1.14849 0.6 0.0
-1.15745 0.65 0.0
-1.16155 0.75 0.0
-1.14917 0.8 0.0
-1.14883 0.7 0.0
-1.09625 0 0.0
-1.09661 0.1 0.0
-1.09393 0.05 0.0
-1.09697 0.2 0.0
-1.08929 0.15 0.0
-1.15687 0.85 0.0
-1.14985 1 0.0
-1.15219 0.95 0.0
-1.14951 0.9 0.0
-1.09733 0.3 0.0
-1.08465 0.25 0.0
-1.09769 0.4 0.0
-1.08 0.35 0.0
-1.08661 0.45 0.0
-1.09804 0.5 0.0
-1.12082 0.55 0.0
-1.10916 0.8 0.0
-1.10629 0.7 0.0
-1.0984 0.6 0.0
-1.11616 0.65 0.0
-1.11149 0.75 0.0
-1.04604 0 0.0
-1.04623 0.05 0.0
-1.04642 0.1 0.0
-1.0468 0.2 0.0
-1.03911 0.15 0.0
-1.09948 0.9 0.0
-1.0993 0.85 0.0
-1.09984 1 0.0
-1.09966 0.95 0.0
-1.04718 0.3 0.0
-1.03449 0.25 0.0
-1.04756 0.4 0.0
-1.02986 0.35 0.0
-1.04775 0.45 0.0
-1.04794 0.5 0.0
-1.04813 0.55 0.0
-1.05911 0.8 0.0
-1.04831 0.6 0.0
-1.06376 0.7 0.0
-1.0485 0.65 0.0
-1.04888 0.75 0.0
-0.995833 0 0.0
-0.991231 0.1 0.0
-0.996033 0.05 0.0
-0.986629 0.2 0.0
-0.98893 0.15 0.0
-1.05447 0.9 0.0
-1.04926 0.85 0.0
-1.04983 1 0.0
-1.04964 0.95 0.0
-0.984328 0.25 0.0
-0.99703 0.3 0.0
-0.997429 0.4 0.0
-0.997628 0.45 0.0
-0.979726 0.35 0.0
-0.997827 0.5 0.0
-0.998027 0.55 0.0
-0.998226 0.6 0.0
-0.961416 0.475 0.0
-1.00907 0.8 0.0
-0.998426 0.65 0.0
-0.998625 0.7 0.0
-1.01138 0.75 0.0
-0.945625 0 0.0
-0.946044 0.1 0.0
-0.943334 0.05 0.0
-0.946463 0.2 0.0
-0.938752 0.15 0.0
-1.00444 0.9 0.0
-1.00675 0.85 0.0
-0.999821 1 0.0
-1.00213 0.95 0.0
-0.93417 0.25 0.0
-0.946881 0.3 0.0
-0.9473 0.4 0.0
-0.929588 0.35 0.0
-0.925005 0.45 0.0
-0.960371 0.525 0.0
-0.959325 0.575 0.0
-0.958279 0.625 0.0
-0.922714 0.5 0.0
-0.959017 0.8 0.0
-0.957233 0.675 0.0
-0.952999 0.7125 0.0
-0.948766 0.75 0.0
-0.895417 0 0.0
-0.895855 0.1 0.0
-0.893136 0.05 0.0
-0.896294 0.2 0.0
-0.888573 0.15 0.0
-0.949184 0.85 0.0
-0.954415 0.9 0.0
-0.949812 1 0.0
-0.949603 0.95 0.0
-0.884011 0.25 0.0
-0.896733 0.3 0.0
-0.874887 0.45 0.0
-0.879449 0.35 0.0
-0.897171 0.4 0.0
-0.920423 0.55 0.0
-0.918132 0.6 0.0
-0.915841 0.65 0.0
-0.872606 0.5 0.0
-0.908968 0.8 0.0
-0.91355 0.7 0.0
-0.898707 0.75 0.0
-0.845208 0 0.0
-0.845438 0.05 0.0
-0.845667 0.1 0.0
-0.845896 0.15 0.0
-0.833853 0.25 0.0
-0.846126 0.2 0.0
-0.899146 0.85 0.0
-0.904386 0.9 0.0
-0.899584 0.95 0.0
-0.899804 1 0.0
-0.838062 0.35 0.0
[...]
POINT_DATA 10839
VECTORS Velocity float
0.21 0 0.0
0.24 0 0.0
0.2275 0 0.0
0.2475 0 0.0
0.25 0 0.0
0.2475 0 0.0
0 0 0.0
0.0475 0 0.0
0.1275 0 0.0
0.09 0 0.0
0.09 0 0.0
0.1275 0 0.0
0.1875 0 0.0
0.16 0 0.0
0.195619 -0.000438859 0.0
0.242786 -0.000343532 0.0
0.215761 -0.000541445 0.0
0.231368 -0.000516585 0.0
0.24864 -0.000142557 0.0
0.24 0 0.0
0.242785 0.000317285 0.0
0.248438 0.000108242 0.0
0 0 0.0
0.0621304 0.000844178 0.0
0.031184 0.000510925 0.0
0.16 0 0.0
0.1875 0 0.0
0.21 0 0.0
0.2275 0 0.0
0.193666 0.000471158 0.0
0.13902 -0.000160746 0.0
0 0 0.0
0.0475 0 0.0
0.0999861 -0.000761747 0.0
0.062151 -0.000860386 0.0
0.0999122 0.000750034 0.0
0.139033 0.000150118 0.0
0.17465 -0.000631965 0.0
0.201717 -0.00119565 0.0
0.235598 -0.00100786 0.0
0.243835 -0.000714678 0.0
0.223421 -0.00200416 0.0
0.249412 -0.000158581 0.0
0.248672 0.000297986 0.0
0.231352 0.000477046 0.0
0.243837 0.00068269 0.0
0 0 0.0
0.0354101 -0.000672197 0.0
0.0736916 -0.000292596 0.0
0.0634707 -0.00357235 0.0
0.174646 0.000589448 0.0
0.220128 0.00102726 0.0
0.201738 0.00116104 0.0
0.11604 -0.000577926 0.0
0.14724 0.000275086 0.0
0 0 0.0
0.0350352 -0.00040337 0.0
0.0692059 -0.000703591 0.0
0.0903727 0.00113274 0.0
0.110171 -0.00123288 0.0
0.147197 -0.000246496 0.0
0.179474 -0.00191387 0.0
0.206402 -0.00258501 0.0
0.214164 -0.0040024 0.0
0.23796 -0.00172627 0.0
0.246601 -0.000903786 0.0
0.22869 -0.00354251 0.0
0.226072 0.00204771 0.0
0.24919 6.60244e-05 0.0
0.245736 0.000927839 0.0
0.236224 0.00160857 0.0
0 0 0.0
0.0356578 -0.0020922 0.0
0.0965674 -0.00670621 0.0
0.0767042 -0.00965671 0.0
0.179465 0.0018381 0.0
0.206328 0.00245808 0.0
0.128387 0.00385225 0.0
0.166616 0.00509278 0.0
0.153318 0.00230268 0.0
0 0 0.0
0.0354154 0.000692422 0.0
0.063579 0.00356526 0.0
0.0965425 0.00663339 0.0
0.12833 -0.00395664 0.0
0.157545 -0.00457113 0.0
0.116074 -0.011103 0.0
0.193518 -0.00743514 0.0
0.216771 -0.00702255 0.0
0.239649 -0.0025092 0.0
0.246221 -0.00134167 0.0
0.248403 -5.96734e-05 0.0
0.231982 -0.00568194 0.0
0.228721 0.00340575 0.0
0.246227 0.00121028 0.0
0.239629 0.00241076 0.0
0 0 0.0
0.0452777 -0.003389 0.0
0.106122 -0.0160507 0.0
0.0793527 -0.0102158 0.0
0.190036 0.00511689 0.0
0.212105 0.00673286 0.0
0.170144 0.0112937 0.0
0.144394 0.0117421 0.0
0 0 0.0
0.0441076 0.00317081 0.0
0.102456 0.0138299 0.0
0.0765083 0.00952871 0.0
0.170188 -0.0114565 0.0
0.144241 -0.0118776 0.0
0.125366 -0.021162 0.0
0.181656 -0.0150315 0.0
0.20136 -0.0135638 0.0
0.218068 -0.0117817 0.0
0.245965 0.00125714 0.0
0.241137 -0.00359847 0.0
0.245979 -0.00142705 0.0
0.233275 -0.00819633 0.0
0.231955 0.00554498 0.0
0.241307 0.00380374 0.0
0 0 0.0
0.0516974 -0.00319318 0.0
0.105427 -0.0187739 0.0
0.0931508 -0.011278 0.0
0.194732 0.0132077 0.0
0.214395 0.0117905 0.0
0.173612 0.0223136 0.0
0.147111 0.0202377 0.0
0.121216 0.0187483 0.0
0 0 0.0
0.0451174 0.00331421 0.0
0.0870909 0.0127261 0.0
0.150273 -0.023277 0.0
0.130608 -0.0263348 0.0
0.182565 -0.0226386 0.0
0.205099 -0.0198107 0.0
0.242806 0.00276407 0.0
0.217418 -0.0170246 0.0
0.243902 -0.00119132 0.0
0.240789 -0.00456738 0.0
0.232395 -0.0102161 0.0
0.233272 0.00787402 0.0
0 0 0.0
0.0624979 -0.00311223 0.0
0.119927 -0.0211189 0.0
0.109763 -0.0110168 0.0
0.20019 0.0199893 0.0
0.214815 0.0172595 0.0
0.181446 0.0290409 0.0
0.162996 0.0298081 0.0
0.142732 0.0287372 0.0
0.127245 0.0248301 0.0
0.108992 0.0198768 0.0
0 0 0.0
0.0562671 0.00395902 0.0
0.0962423 0.0118446 0.0
0.13765 -0.028225 0.0
0.163058 -0.0301461 0.0
0.190251 -0.0271075 0.0
0.206784 -0.0235036 0.0
0.232328 0.00997778 0.0
0.239921 -8.83781e-05 0.0
0.238072 0.00495436 0.0
0.21507 -0.0208424 0.0
0.229209 -0.010773 0.0
0.236966 -0.00465976 0.0
0.222956 0.0159777 0.0
0 0 0.0
0.0743943 -0.0028128 0.0
0.140797 -0.0245947 0.0
0.121353 -0.00931764 0.0
0.197283 0.0264615 0.0
0.210329 0.0229201 0.0
0.185383 0.0311085 0.0
0.169799 0.0325209 0.0
0.148095 0.0307647 0.0
0.131493 0.0257268 0.0
0.116244 0.0204465 0.0
0 0 0.0
0.064736 0.00329776 0.0
0.106243 0.0107408 0.0
0.153441 -0.0310931 0.0
0.169943 -0.0329881 0.0
0.19592 -0.0287928 0.0
0.229193 0.0105532 0.0
0.233438 0.00342097 0.0
0.211508 -0.0220113 0.0
0.222101 -0.013185 0.0
0.225319 0.00035938 0.0
0.230843 -0.00488863 0.0
0.217126 0.0188273 0.0
0.192561 -0.0287748 0.0
0 0 0.0
0.0820061 -0.002175 0.0
0.153769 -0.0257599 0.0
0.144375 -0.0139821 0.0
0.125633 -0.0062951 0.0
0.196936 0.028552 0.0
0.175629 0.0321709 0.0
0.162275 0.0314523 0.0
0.140869 0.0244188 0.0
0.126615 0.0171755 0.0
0 0 0.0
0.071778 0.00268163 0.0
0.115019 0.00784482 0.0
0.163659 -0.0303309 0.0
0.175728 -0.0321408 0.0
0.164037 -0.0250888 0.0
0.224101 0.00909958 0.0
0.217628 0.00615789 0.0
0.20473 -0.0225518 0.0
0.21165 -0.0168329 0.0
0.217596 -0.00653785 0.0
0.215127 0.0167514 0.0
0.203797 0.023054 0.0
0.182505 -0.0287832 0.0
0.192998 -0.0249078 0.0
0 0 0.0
0.0813547 -0.00134513 0.0
0.157716 -0.0166485 0.0
0.132104 -0.0051864 0.0
0.151901 -0.0104348 0.0
0.187945 0.0280511 0.0
0.177361 0.0293663 0.0
0.166514 0.0282012 0.0
0.153461 0.0256795 0.0
0.13785 0.0147603 0.0
0 0 0.0
0.0748215 0.00181102 0.0
0.125359 0.00621166 0.0
0.174654 -0.0257866 0.0
0.167963 -0.0207381 0.0
0.211501 0.0117847 0.0
0.210768 0.00269888 0.0
0.202121 -0.0180631 0.0
0.207867 -0.0117064 0.0
0.210825 -0.00434859 0.0
0.204364 0.0162209 0.0
0.191517 0.0228821 0.0
0.183423 -0.0236091 0.0
0.192666 -0.0204905 0.0
0 0 0.0
0.108357 -0.00198113 0.0
0.164132 -0.0128062 0.0
0.153319 -0.00669671 0.0
0.183507 0.0246543 0.0
0.172995 0.0242679 0.0
0.162987 0.0207923 0.0
0.151792 0.0175157 0.0
0.140711 0.00672646 0.0
0 0 0.0
0.0810619 0.00136471 0.0
0.178002 -0.0199765 0.0
0.171354 -0.0165241 0.0
0.205379 0.00844699 0.0
0.204229 -0.000270905 0.0
0.19905 -0.0129202 0.0
0.200053 -0.00629245 0.0
0.198998 0.0125177 0.0
0.192965 0.0171262 0.0
0.185526 0.019635 0.0
0.191911 -0.0160086 0.0
0.185405 -0.0184086 0.0
0 0 0.0
0.111538 -0.00123648 0.0
0.168959 -0.00916273 0.0
0.157924 -0.00483152 0.0
0.177652 0.019751 0.0
0.170277 0.0173217 0.0
0.10791 0.00194711 0.0
0.16345 0.0127494 0.0
0.151995 0.00690737 0.0
0 0 0.0
0.179117 -0.0148164 0.0
0.174511 -0.0120143 0.0
0.199524 0.00562851 0.0
0.198189 -0.000259563 0.0
0.194366 -0.0100097 0.0
0.195178 -0.00480438 0.0
0.189807 0.0128633 0.0
0.19424 0.00947457 0.0
0.178792 0.014529 0.0
0.184461 0.0146279 0.0
0.189574 -0.0126241 0.0
0.184507 -0.0136769 0.0
0 0 0.0
0.113881 -0.000703972 0.0
0.172591 -0.00643378 0.0
0.161862 -0.00321397 0.0
0.168559 0.00899768 0.0
0.173456 0.0125959 0.0
0.110908 0.0012225 0.0
0.157276 0.0047463 0.0
0 0 0.0
0.180171 -0.0106932 0.0
0.176888 -0.00856365 0.0
0.19462 0.00407406 0.0
0.193576 -0.00032627 0.0
0.187829 -0.00975012 0.0
0.189786 -0.00651069 0.0
0.191388 -0.0036042 0.0
0.187953 0.00980928 0.0
0.190765 0.00680724 0.0
0.17956 0.0112708 0.0
0.183781 0.0104759 0.0
0.183962 -0.00991016 0.0
0 0 0.0
0.115092 -0.000595324 0.0
0.175555 -0.00425026 0.0
0.164354 -0.00223107 0.0
0.171561 0.00658328 0.0
0.175983 0.0088811 0.0
0.113059 0.000716862 0.0
0.160915 0.0031911 0.0
0 0 0.0
0.178663 -0.00605376 0.0
0.181113 -0.00697986 0.0
0.191027 0.00281543 0.0
0.190326 -0.000365422 0.0
0.188085 -0.00504804 0.0
0.1859 -0.00628923 0.0
0.188788 -0.00269234 0.0
0.18827 0.00470093 0.0
0.186519 0.00731731 0.0
0.180305 0.00786939 0.0
0.183322 0.00729586 0.0
0.183624 -0.0070938 0.0
0 0 0.0
0.115784 -0.000440458 0.0
0.177101 -0.00314884 0.0
0.166087 -0.00155996 0.0
0.174234 0.00447747 0.0
0.177769 0.00613281 0.0
0 0 0.0
0.163521 0.0021072 0.0
0.114357 0.000474144 0.0
0.181691 -0.00498071 0.0
0.179938 -0.00427519 0.0
0.185124 -0.0048033 0.0
0.188458 0.00182486 0.0
0.18797 -0.000426245 0.0
0.187304 -0.00218154 0.0
0.186737 -0.00393549 0.0
0.186508 0.00313963 0.0
0.185263 0.00500345 0.0
0.180994 0.0048647 0.0
0.183003 0.00497226 0.0
0.183417 -0.00508466 0.0
0 0 0.0
0.116639 -0.000243876 0.0
0.167084 -0.00110879 0.0
0.178375 -0.00222552 0.0
0.176377 0.00282016 0.0
0.179056 0.00415535 0.0
0 0 0.0
0.1152 0.000304375 0.0
0.164872 0.00144314 0.0
0.182045 -0.00388322 0.0
0.180906 -0.00305746 0.0
0.184552 -0.00370748 0.0
0.185186 -0.00262818 0.0
0.186665 0.00109479 0.0
0.186356 -0.000498175 0.0
0.186181 -0.00180319 0.0
0.185269 0.00199743 0.0
0.184377 0.00331926 0.0
0.181279 0.00359593 0.0
0.182777 0.00329698 0.0
0.183309 -0.00370041 0.0
0 0 0.0
0.117183 -9.06967e-05 0.0
0.179663 -0.00152748 0.0
0.16827 -0.000729747 0.0
0.177434 0.00197414 0.0
0.179942 0.00275314 0.0
0.115591 0.00018318 0.0
0 0 0.0
0.166083 0.000893008 0.0
0.181578 -0.00223986 0.0
0.182459 -0.00263315 0.0
0.18396 -0.00253135 0.0
0.184494 -0.00206508 0.0
0.185139 -0.00148502 0.0
0.184955 0.000343307 0.0
0.185219 -0.00058071 0.0
0.184395 0.00116516 0.0
0.183568 0.00176781 0.0
0.18158 0.00207077 0.0
0.1826 0.00209903 0.0
0.183256 -0.00275873 0.0
0 0 0.0
0.117672 -8.0902e-05 0.0
0.168744 -0.000583749 0.0
0.182116 -0.00170552 0.0
0.180132 -0.00119728 0.0
0.178322 0.00125649 0.0
0.180431 0.00193722 0.0
0.116042 9.71985e-05 0.0
0 0 0.0
0.166863 0.000573605 0.0
0.183248 -0.00221518 0.0
0.182687 -0.00215089 0.0
0.184102 -0.00176496 0.0
0.183699 -0.00201957 0.0
0.184174 -0.0012557 0.0
0.184434 -0.000678114 0.0
0.184366 4.4969e-05 0.0
0.183774 0.000546246 0.0
0.183232 0.00110319 0.0
0.181697 0.00142506 0.0
0.180944 0.00105572 0.0
0.182456 0.00123446 0.0
0 0 0.0
0.169427 -0.000518096 0.0
0.117911 -0.00022087 0.0
0.182479 -0.00141934 0.0
0.180794 -0.000963055 0.0
0.17887 0.000742314 0.0
0 0 0.0
0.116266 1.33284e-05 0.0
0.167418 0.000292284 0.0
0.183272 -0.00184681 0.0
0.18296 -0.00164349 0.0
0.183823 -0.00157634 0.0
0.183543 -0.00170853 0.0
0.18385 -0.00122193 0.0
0.18389 -0.000794569 0.0
0.183901 -0.000210747 0.0
0.181114 0.000636247 0.0
0.182351 0.000680761 0.0
0.183334 7.38775e-05 0.0
0.182962 0.00058516 0.0
0.181769 0.000773852 0.0
0 0 0.0
0.117679 -0.000157229 0.0
0.169595 -0.000495676 0.0
0.182803 -0.00120171 0.0
0.181226 -0.000842348 0.0
0.167681 0.00012158 0.0
0.17919 0.000332512 0.0
0 0 0.0
0.116636 -5.51205e-05 0.0
0.183319 -0.00158596 0.0
0.183172 -0.00142438 0.0
0.183586 -0.00145573 0.0
0.183463 -0.00155096 0.0
0.1836 -0.00123284 0.0
0.183508 -0.000933132 0.0
0.183304 -0.000608849 0.0
0.181244 0.000238825 0.0
0.183004 -0.000307924 0.0
0.182247 0.000244818 0.0
0.182626 -5.41094e-05 0.0
0.181786 0.000186655 0.0
0 0 0.0
0.170006 -0.000447686 0.0
0.11851 -7.80065e-05 0.0
0.183143 -0.00107322 0.0
0.181588 -0.000782772 0.0
0.167741 4.63581e-06 0.0
0.179428 6.55994e-05 0.0
0 0 0.0
0.116125 2.59882e-05 0.0
0.18336 -0.00132634 0.0
0.183394 -0.00146698 0.0
0.183445 -0.00144392 0.0
0.183382 -0.00129806 0.0
0.183439 -0.00150664 0.0
0.183244 -0.00109297 0.0
0.183034 -0.000861655 0.0
0.182756 -0.000628838 0.0
0.183192 -0.00131428 0.0
0.181292 -7.55805e-05 0.0
0.182433 -0.000424178 0.0
0.182088 -0.000266178 0.0
0.181752 -8.59241e-05 0.0
0 0 0.0
0.170475 -0.000426465 0.0
0.118691 -0.000185093 0.0
0.183364 -0.00106271 0.0
0.18187 -0.000783549 0.0
0.16779 -0.000125116 0.0
0.179501 -0.000105437 0.0
0 0 0.0
0.116218 -5.74293e-05 0.0
0.183555 -0.00131801 0.0
0.183494 -0.00145356 0.0
0.183359 -0.00150805 0.0
0.18346 -0.00156019 0.0
0.183188 -0.00150358 0.0
0.182988 -0.0011444 0.0
0.182735 -0.000957186 0.0
0.182443 -0.000772163 0.0
0.182982 -0.00139476 0.0
0.181255 -0.000328991 0.0
0.182132 -0.000608361 0.0
0.181891 -0.000526742 0.0
0.181652 -0.000459919 0.0
0 0 0.0
0.170672 -0.000473717 0.0
0.118825 -0.000178192 0.0
0.183639 -0.00110783 0.0
0.1822 -0.000832139 0.0
0.179483 -0.00029351 0.0
0.167745 -0.000253089 0.0
0 0 0.0
0.116391 -0.00017537 0.0
0.183762 -0.00139226 0.0
0.183618 -0.00152793 0.0
0.183108 -0.00170721 0.0
0.183514 -0.00168958 0.0
0.183336 -0.00165079 0.0
0.182731 -0.00125347 0.0
0.182448 -0.00109653 0.0
0.182148 -0.000938513 0.0
0.182855 -0.00163806 0.0
0.181164 -0.000541763 0.0
0.18185 -0.000788926 0.0
0.18152 -0.000719476 0.0
0 0 0.0
0.118731 -0.000202239 0.0
0.171003 -0.000551839 0.0
0.182587 -0.000903852 0.0
0.183991 -0.00153669 0.0
0.183908 -0.00121411 0.0
0.179364 -0.000447593 0.0
0.167609 -0.000288829 0.0
0.115985 -8.02963e-05 0.0
0 0 0.0
0.183583 -0.00185279 0.0
0.18377 -0.00168306 0.0
0.183073 -0.00190748 0.0
0.183338 -0.0018645 0.0
0.181976 -0.00123025 0.0
0.182575 -0.00152604 0.0
0.182276 -0.00138618 0.0
0.182762 -0.0019236 0.0
0.181358 -0.000961993 0.0
0.18097 -0.000769576 0.0
0.18163 -0.00114649 0.0
0 0 0.0
0.119425 -0.000212531 0.0
0.171461 -0.000617877 0.0
0.182869 -0.00101666 0.0
0.184178 -0.0016886 0.0
0.184303 -0.00143291 0.0
0.179198 -0.000582037 0.0
0.167331 -0.00033427 0.0
0.115641 -0.000103872 0.0
0 0 0.0
0.179075 -0.000721048 0.0
0.183666 -0.00205413 0.0
0.184001 -0.00200067 0.0
0.183384 -0.00227432 0.0
0.183051 -0.00213992 0.0
0.181729 -0.00163144 0.0
0.182113 -0.00168956 0.0
0.182439 -0.00183025 0.0
0.182673 -0.00225916 0.0
0.181158 -0.00120121 0.0
0.180762 -0.000965407 0.0
0.181428 -0.00142843 0.0
0 0 0.0
0.119837 -0.00019411 0.0
0.171988 -0.000734025 0.0
0.183271 -0.00120763 0.0
0.184467 -0.00194779 0.0
0.184671 -0.0016801 0.0
0.115306 -0.000114874 0.0
0.167226 -0.000423243 0.0
0 0 0.0
0.178722 -0.000843999 0.0
0.183797 -0.00238979 0.0
0.184222 -0.00233072 0.0
0.183443 -0.00265282 0.0
0.183026 -0.00250377 0.0
0.181551 -0.00190093 0.0
0.181946 -0.00201849 0.0
0.182591 -0.00265445 0.0
0.182245 -0.0023367 0.0
0.180968 -0.00138422 0.0
0.180504 -0.00117101 0.0
0.181195 -0.00171823 0.0
0 0 0.0
0.120478 -0.000267218 0.0
0.17242 -0.000929415 0.0
0.183763 -0.00148157 0.0
0.184864 -0.0023845 0.0
0.184469 -0.00275035 0.0
0.18509 -0.00201022 0.0
0.115253 -0.000198724 0.0
0.166802 -0.000564768 0.0
0 0 0.0
0.178413 -0.00100244 0.0
0.183998 -0.00295195 0.0
0.183497 -0.00301975 0.0
0.183012 -0.0029398 0.0
0.182517 -0.0029978 0.0
0.181361 -0.00218432 0.0
0.181744 -0.00239644 0.0
0.182091 -0.00274918 0.0
0.180215 -0.00138448 0.0
0.180685 -0.00164727 0.0
0.180918 -0.00203242 0.0
0 0 0.0
0.120946 -0.000502083 0.0
0.17319 -0.0011637 0.0
0.184377 -0.00181929 0.0
0.185159 -0.00272583 0.0
0.18474 -0.00324612 0.0
0.185568 -0.00240401 0.0
0.114929 -0.000308997 0.0
0.166498 -0.00066929 0.0
0 0 0.0
0.179886 -0.00155477 0.0
0.165946 -0.000712856 0.0
0.177882 -0.00117445 0.0
0.184176 -0.00351389 0.0
0.183549 -0.00342421 0.0
0.182978 -0.00371378 0.0
0.182446 -0.00337629 0.0
0.181963 -0.00311602 0.0
0.181096 -0.0025596 0.0
0.181437 -0.00299794 0.0
0.180249 -0.00199834 0.0
0.180647 -0.00233272 0.0
0.184347 -0.0040324 0.0
0 0 0.0
0.121706 -0.000570797 0.0
0.185131 -0.00219484 0.0
0.17399 -0.00145459 0.0
0.185069 -0.00388306 0.0
0.185681 -0.00340615 0.0
0.186091 -0.00289854 0.0
0.114665 -0.000313534 0.0
0 0 0.0
0.179937 -0.00223942 0.0
0.179459 -0.00179222 0.0
0.177583 -0.00134058 0.0
0.113825 -0.000184754 0.0
0.165646 -0.000783265 0.0
0.183633 -0.00405311 0.0
0.182946 -0.00421549 0.0
0.182311 -0.00396161 0.0
0.182199 -0.00447195 0.0
0.181804 -0.00352008 0.0
0.180769 -0.00299316 0.0
0.181141 -0.00350412 0.0
0.180325 -0.00264459 0.0
0.184494 -0.00464057 0.0
0.1224 -0.00067623 0.0
0 0 0.0
0.18569 -0.00256555 0.0
0.174829 -0.0017161 0.0
0.18542 -0.00464752 0.0
0.186068 -0.00392316 0.0
0.186755 -0.00350361 0.0
0 0 0.0
0.179463 -0.00257308 0.0
0.178797 -0.00211694 0.0
0.176973 -0.00149233 0.0
0.113542 -0.000233591 0.0
0.164912 -0.000899471 0.0
0.183718 -0.00513107 0.0
0.182911 -0.00477403 0.0
0.182047 -0.0050279 0.0
0.181458 -0.00438971 0.0
0.180397 -0.00347092 0.0
0.180813 -0.00407494 0.0
0.179756 -0.00319972 0.0
0.184727 -0.00553872 0.0
0 0 0.0
0.123801 -0.000750875 0.0
0.186611 -0.00312483 0.0
0.175976 -0.00203279 0.0
0.187504 -0.00426178 0.0
0.185816 -0.00559234 0.0
0.186783 -0.00495039 0.0
0 0 0.0
0 0 0.0
0.1789 -0.00296402 0.0
0.178234 -0.00243517 0.0
0.176376 -0.00171395 0.0
0.164245 -0.00104779 0.0
0.113054 -0.000395252 0.0
0.183755 -0.00607871 0.0
0.182807 -0.00562832 0.0
0.180493 -0.00458322 0.0
0.181807 -0.00587428 0.0
0.181125 -0.00512253 0.0
0.179941 -0.00401738 0.0
0.179208 -0.00367801 0.0
0.183755 -0.00697112 0.0
0.184905 -0.00662197 0.0
0.125296 -0.000895795 0.0
0.177133 -0.0024915 0.0
0.187689 -0.00388296 0.0
0.188246 -0.00501338 0.0
0.186246 -0.00672524 0.0
0.187268 -0.00578815 0.0
0 0 0.0
0 0 0.0
0.177648 -0.00269413 0.0
0.178077 -0.00348819 0.0
0.163567 -0.0011979 0.0
0.175465 -0.00199931 0.0
0.112452 -0.000430511 0.0
0.182591 -0.00707552 0.0
0.181467 -0.00686032 0.0
0.178589 -0.0042093 0.0
0.180115 -0.00513687 0.0
0.180824 -0.0057596 0.0
0.1792 -0.00484982 0.0
0.183723 -0.00794609 0.0
0.185174 -0.00843198 0.0
0.186675 -0.00814419 0.0
0.126741 -0.00130189 0.0
0.178852 -0.00319719 0.0
0.189297 -0.00511454 0.0
0.189269 -0.00614685 0.0
0.188159 -0.00744907 0.0
0 0 0.0
0 0 0.0
0.176694 -0.00311198 0.0
0.177302 -0.0039639 0.0
0.162611 -0.00135166 0.0
0.174691 -0.00224446 0.0
0.111566 -0.000467257 0.0
0.180462 -0.00645761 0.0
0.181032 -0.00795985 0.0
0.182283 -0.00832672 0.0
0.177859 -0.00478703 0.0
0.179565 -0.00591675 0.0
0.178519 -0.00556426 0.0
0.176416 -0.00446997 0.0
0.183493 -0.0100265 0.0
0 0 0.0
0.185209 -0.0101418 0.0
0.18893 -0.00914744 0.0
0.18706 -0.00982935 0.0
0.12908 -0.00171136 0.0
0.190763 -0.00626434 0.0
0.181342 -0.0043389 0.0
0.19062 -0.00807389 0.0
0 0 0.0
0 0 0.0
0 0 0.0
0 0 0.0
0 0 0.0
0.110698 -0.000500439 0.0
0.173884 -0.00250317 0.0
0.17577 -0.0034966 0.0
0.161748 -0.00144724 0.0
0.179886 -0.00743627 0.0
0.180444 -0.00921687 0.0
0.181887 -0.00974199 0.0
0.177867 -0.00617306 0.0
0.176995 -0.0054181 0.0
0.178582 -0.0071467 0.0
0.176169 -0.00598549 0.0
0.175645 -0.00486231 0.0
0.1831 -0.0118402 0.0
0.185146 -0.0120613 0.0
0 0 0.0
-0.000340189 0.000142699 0.0
0 0 0.0
-6.38364e-05 0.000370062 0.0
0.187389 -0.0119375 0.0
0.18957 -0.0107021 0.0
0.1322 -0.00227678 0.0
0.192575 -0.00795444 0.0
0.184013 -0.00576448 0.0
0.19204 -0.0102385 0.0
0 0 0.0
0 0 0.0
0 0 0.0
-1.29573e-05 0.000405482 0.0
-5.89289e-05 0.000602856 0.0
-0.000298464 0.00030404 0.0
0 0 0.0
0.109942 -0.000522071 0.0
0.172855 -0.0027178 0.0
0.174731 -0.00389658 0.0
0.160567 -0.00159691 0.0
0.179177 -0.00854159 0.0
0.179682 -0.0106164 0.0
0.181293 -0.0113346 0.0
0.177112 -0.00684185 0.0
0.177884 -0.00794114 0.0
0.175229 -0.00657241 0.0
0.174217 -0.00555499 0.0
0.182523 -0.0138631 0.0
0.184294 -0.0141074 0.0
0.186207 -0.0140978 0.0
0 0 0.0
-0.000540668 2.61913e-05 0.0
0 0 0.0
0 0 0.0
-9.39016e-05 -0.0019491 0.0
0.000203944 -0.0017714 0.0
0.188173 -0.0139604 0.0
0.190305 -0.0133017 0.0
0.187079 -0.00750634 0.0
0.136107 -0.00310295 0.0
0.19479 -0.0102926 0.0
0.193421 -0.0130438 0.0
0 0 0.0
0.000196901 -4.3483e-05 0.0
0.000271435 -0.000871552 0.0
7.35753e-05 5.04967e-05 0.0
5.59585e-05 -0.000375858 0.0
0 0 0.0
0.108979 -0.00056911 0.0
0.171664 -0.00299113 0.0
0.17354 -0.00430054 0.0
0.159353 -0.0017514 0.0
0.178287 -0.00974698 0.0
0.178704 -0.0121311 0.0
0.18046 -0.0131161 0.0
0.175672 -0.00801296 0.0
0.177081 -0.00876199 0.0
0.173963 -0.0073022 0.0
0.172246 -0.00472934 0.0
0.172894 -0.00613175 0.0
0.181813 -0.0156649 0.0
0.18448 -0.0161183 0.0
0.187448 -0.0166019 0.0
0 0 0.0
1.15979e-06 -0.000297491 0.0
0 0 0.0
0 0 0.0
0 0 0.0
0 0 0.0
0.00115872 -0.00386647 0.0
-0.000342611 0.00114567 0.0
-0.000356284 -0.00199979 0.0
0.000264244 -0.00660769 0.0
0.000640108 -0.00499112 0.0
0 0 0.0
-0.00135575 0.00876112 0.0
0.190872 -0.0174946 0.0
0.194476 -0.0158638 0.0
0 0 0.0
0.141898 -0.00463193 0.0
0.191203 -0.0099378 0.0
0.197802 -0.0144513 0.0
0 0 0.0
0 0 0.0
0.000897622 -0.00204138 0.0
0.00102138 -0.0015341 0.0
0.00139017 -0.0013211 0.0
0 0 0.0
0.107955 -0.000632938 0.0
0.170157 -0.00332691 0.0
0.158089 -0.00192008 0.0
0.17105 -0.00505327 0.0
0.177191 -0.0110438 0.0
0.17779 -0.0133487 0.0
0.179347 -0.01508 0.0
0.174601 -0.00875721 0.0
0.1759 -0.00984614 0.0
0.172546 -0.00803784 0.0
0.171788 -0.00655229 0.0
0.185468 -0.0183791 0.0
0.180848 -0.017617 0.0
0.183202 -0.0200476 0.0
0.186734 -0.0211198 0.0
0.190911 -0.021937 0.0
0 0 0.0
0.000940969 -0.000491166 0.0
-0.00120008 0.00590014 0.0
-0.00237423 0.000984302 0.0
-0.000572445 0.00208027 0.0
0.00218478 -0.00698634 0.0
0.00433387 -0.00750713 0.0
-0.00105736 -0.00234978 0.0
-0.000433052 -0.00807409 0.0
0.00152053 -0.0110491 0.0
-0.00181031 0.0129844 0.0
-0.00495625 0.0086317 0.0