# vtk DataFile Version 3.0
Mesh NS-CD Problem
ASCII
DATASET UNSTRUCTURED_GRID
POINTS 10839 float
-2 0.3 0.0
-2 0.4 0.0
-2 0.35 0.0
-2 0.45 0.0
-2 0.5 0.0
-2 0.55 0.0
-2 0 0.0
-2 0.05 0.0
-2 0.85 0.0
-2 0.9 0.0
-2 0.1 0.0
-2 0.15 0.0
-2 0.25 0.0
-2 0.2 0.0
-1.96653 0.266667 0.0
-1.96524 0.415385 0.0
-1.96485 0.315 0.0
-1.96348 0.363636 0.0
-1.96414 0.464286 0.0
-2 0.6 0.0
-1.96538 0.584615 0.0
-1.96538 0.538462 0.0
-1.94979 0 0.0
-1.96653 0.0666666 0.0
-1.93306 0.0333333 0.0
-2 0.8 0.0
-2 0.75 0.0
-2 0.7 0.0
-2 0.65 0.0
-1.96249 0.7375 0.0
-1.96666 0.833333 0.0
-2 1 0.0
-2 0.95 0.0
-1.96249 0.8875 0.0
-1.96666 0.933333 0.0
-1.96234 0.1125 0.0
-1.96653 0.166667 0.0
-1.93724 0.225 0.0
-1.92971 0.28 0.0
-1.93048 0.380769 0.0
-1.93048 0.423077 0.0
-1.89958 0.3375 0.0
-1.9292 0.484203 0.0
-1.92117 0.530907 0.0
-1.96363 0.636364 0.0
-1.93076 0.576923 0.0
-1.89958 0 0.0
-1.88703 0.0375 0.0
-1.90963 0.08 0.0
-1.86611 0.0666666 0.0
-1.93749 0.775 0.0
-1.93635 0.672727 0.0
-1.92999 0.72 0.0
-1.93332 0.866667 0.0
-1.92856 0.821429 0.0
-1.94999 1 0.0
-1.92499 0.9625 0.0
-1.92499 0.925 0.0
-1.89998 0.9 0.0
-1.89958 0.125 0.0
-1.92827 0.178571 0.0
-1.89958 0.233333 0.0
-1.89045 0.290909 0.0
-1.86096 0.311538 0.0
-1.89241 0.392857 0.0
-1.89334 0.448489 0.0
-1.85655 0.357143 0.0
-1.89614 0.653846 0.0
-1.89427 0.504121 0.0
-1.8952 0.559753 0.0
-1.89614 0.615385 0.0
-1.84937 0 0.0
-1.83264 0.0333333 0.0
-1.85655 0.107143 0.0
-1.81172 0.075 0.0
-1.89998 0.766667 0.0
-1.89089 0.709091 0.0
-1.87498 0.85 0.0
-1.85998 0.79 0.0
-1.88748 0.8125 0.0
-1.89998 1 0.0
-1.88748 0.9625 0.0
-1.86664 0.933333 0.0
-1.85712 0.892857 0.0
-1.87448 0.15 0.0
-1.86611 0.194444 0.0
-1.83264 0.133333 0.0
-1.83264 0.2625 0.0
-1.82068 0.321429 0.0
-1.85664 0.404762 0.0
-1.85674 0.452381 0.0
-1.85683 0.5 0.0
-1.81184 0.375 0.0
-1.85712 0.642857 0.0
-1.85693 0.547619 0.0
-1.85702 0.595238 0.0
-1.79917 0 0.0
-1.78482 0.0357143 0.0
-1.79917 0.116667 0.0
-1.76569 0.0666666 0.0
-1.85452 0.745455 0.0
-1.82689 0.692308 0.0
-1.81815 0.781818 0.0
-1.82497 0.825 0.0
-1.84997 1 0.0
-1.8333 0.958333 0.0
-1.81247 0.8875 0.0
-1.81247 0.925 0.0
-1.81742 0.218182 0.0
-1.82427 0.175 0.0
-1.77634 0.145455 0.0
-1.79144 0.242308 0.0
-1.78482 0.285714 0.0
-1.77469 0.332653 0.0
-1.81215 0.529762 0.0
-1.81194 0.422619 0.0
-1.81203 0.470238 0.0
-1.76714 0.392857 0.0
-1.81234 0.625 0.0
-1.79732 0.571429 0.0
-1.74896 0 0.0
-1.73222 0.0333333 0.0
-1.75398 0.105 0.0
-1.71883 0.07 0.0
-1.79227 0.730769 0.0
-1.78007 0.679121 0.0
-1.75765 0.769231 0.0
-1.78178 0.818182 0.0
-1.78996 0.86 0.0
-1.79996 1 0.0
-1.78568 0.964286 0.0
-1.76663 0.922222 0.0
-1.76569 0.1875 0.0
-1.73222 0.15 0.0
-1.74896 0.25 0.0
-1.73714 0.304762 0.0
-1.76743 0.537202 0.0
-1.72869 0.343878 0.0
-1.76732 0.485119 0.0
-1.76723 0.440476 0.0
-1.72243 0.410714 0.0
-1.76757 0.607143 0.0
-1.69875 0 0.0
-1.68369 0.035 0.0
-1.69875 0.1125 0.0
-1.66528 0.075 0.0
-1.74341 0.708974 0.0
-1.73324 0.665934 0.0
-1.70441 0.74478 0.0
-1.71423 0.785714 0.0
-1.72303 0.826923 0.0
-1.74541 0.854545 0.0
-1.74541 0.890909 0.0
-1.74996 1 0.0
-1.73745 0.9625 0.0
-1.71359 0.927273 0.0
-1.68716 0.153846 0.0
-1.7131 0.214286 0.0
-1.70725 0.275 0.0
-1.69712 0.321939 0.0
-1.72279 0.589286 0.0
-1.72261 0.5 0.0
-1.7227 0.544643 0.0
-1.6827 0.355102 0.0
-1.67773 0.428571 0.0
-1.70763 0.464286 0.0
-1.70369 0.62449 0.0
-1.64854 0 0.0
-1.63181 0.0375 0.0
-1.64137 0.142857 0.0
-1.61764 0.0769231 0.0
-1.69458 0.703846 0.0
-1.67471 0.657437 0.0
-1.66143 0.727637 0.0
-1.67125 0.768571 0.0
-1.67851 0.821429 0.0
-1.68841 0.861538 0.0
-1.70904 0.890909 0.0
-1.69995 1 0.0
-1.68176 0.963636 0.0
-1.67267 0.927273 0.0
-1.65427 0.187143 0.0
-1.66718 0.231429 0.0
-1.66554 0.3 0.0
-1.67802 0.571429 0.0
-1.67792 0.523809 0.0
-1.6367 0.366327 0.0
-1.63682 0.423469 0.0
-1.62568 0.502976 0.0
-1.6629 0.470238 0.0
-1.65254 0.618367 0.0
-1.6059 0.307143 0.0
-1.59833 0 0.0
-1.58288 0.0384615 0.0
-1.60563 0.169643 0.0
-1.58179 0.112271 0.0
-1.56964 0.0714286 0.0
-1.64574 0.690385 0.0
-1.62827 0.751429 0.0
-1.63371 0.791071 0.0
-1.64279 0.857143 0.0
-1.65378 0.896154 0.0
-1.64994 1 0.0
-1.6363 0.963636 0.0
-1.61916 0.930769 0.0
-1.61345 0.209107 0.0
-1.62126 0.248571 0.0
-1.56989 0.196429 0.0
-1.63324 0.553571 0.0
-1.58846 0.535714 0.0
-1.59408 0.361905 0.0
-1.59161 0.402211 0.0
-1.58832 0.464286 0.0
-1.61504 0.598581 0.0
-1.59683 0.64359 0.0
-1.57899 0.274107 0.0
-1.56176 0.322381 0.0
-1.54812 0 0.0
-1.53378 0.0357143 0.0
-1.54593 0.147619 0.0
-1.53385 0.0732143 0.0
-1.53393 0.110714 0.0
-1.58522 0.704286 0.0
-1.58709 0.745 0.0
-1.58896 0.785714 0.0
-1.60695 0.830357 0.0
-1.60707 0.892857 0.0
-1.59993 1 0.0
-1.58454 0.965385 0.0
-1.57135 0.928571 0.0
-1.55209 0.241071 0.0
-1.5291 0.198214 0.0
-1.56936 0.570918 0.0
-1.54369 0.517857 0.0
-1.5464 0.380952 0.0
-1.54564 0.427721 0.0
-1.54488 0.47449 0.0
-1.55026 0.606122 0.0
-1.54222 0.677143 0.0
-1.52943 0.282857 0.0
-1.52143 0.33619 0.0
-1.49792 0 0.0
-1.49802 0.05 0.0
-1.49822 0.15 0.0
-1.49312 0.1 0.0
-1.5423 0.717143 0.0
-1.54419 0.767857 0.0
-1.54727 0.819048 0.0
-1.57122 0.861905 0.0
-1.53553 0.914286 0.0
-1.54992 1 0.0
-1.53563 0.964286 0.0
-1.49842 0.25 0.0
-1.48831 0.2 0.0
-1.5214 0.558929 0.0
-1.49891 0.5 0.0
-1.49871 0.4 0.0
-1.47631 0.45 0.0
-1.49911 0.6 0.0
-1.49921 0.65 0.0
-1.49931 0.7 0.0
-1.48111 0.35 0.0
-1.48351 0.3 0.0
-1.44771 0 0.0
-1.44782 0.05 0.0
-1.44804 0.15 0.0
-1.44793 0.1 0.0
-1.49941 0.75 0.0
-1.49951 0.8 0.0
-1.49981 0.95 0.0
-1.49961 0.85 0.0
-1.49971 0.9 0.0
-1.49991 1 0.0
-1.44826 0.25 0.0
-1.43815 0.2 0.0
-1.47151 0.55 0.0
-1.44881 0.5 0.0
-1.44859 0.4 0.0
-1.42619 0.45 0.0
-1.44913 0.65 0.0
-1.44902 0.6 0.0
-1.44935 0.75 0.0
-1.44924 0.7 0.0
-1.43972 0.35 0.0
-1.43336 0.3 0.0
-1.3975 0 0.0
-1.39762 0.05 0.0
-1.39786 0.15 0.0
-1.39274 0.1 0.0
-1.44957 0.85 0.0
-1.44946 0.8 0.0
-1.4523 0.95 0.0
-1.44968 0.9 0.0
-1.4499 1 0.0
-1.3981 0.25 0.0
-1.38798 0.2 0.0
-1.42141 0.55 0.0
-1.3987 0.5 0.0
-1.39834 0.35 0.0
-1.37845 0.4 0.0
-1.37607 0.45 0.0
-1.40784 0.65 0.0
-1.39894 0.6 0.0
-1.41185 0.75 0.0
-1.39918 0.7 0.0
-1.38322 0.3 0.0
-1.34729 0 0.0
-1.34492 0.05 0.0
-1.34018 0.15 0.0
-1.34255 0.1 0.0
-1.40707 0.85 0.0
-1.39941 0.8 0.0
-1.39977 0.95 0.0
-1.39965 0.9 0.0
-1.39989 1 0.0
-1.33781 0.2 0.0
-1.33544 0.25 0.0
-1.37131 0.55 0.0
-1.34859 0.5 0.0
-1.33833 0.4 0.0
-1.3307 0.35 0.0
-1.32595 0.45 0.0
-1.34885 0.6 0.0
-1.36655 0.65 0.0
-1.36179 0.75 0.0
-1.34911 0.7 0.0
-1.33307 0.3 0.0
-1.29708 0 0.0
-1.29722 0.05 0.0
-1.2975 0.15 0.0
-1.29236 0.1 0.0
-1.35703 0.85 0.0
-1.34937 0.8 0.0
-1.34988 1 0.0
-1.34962 0.9 0.0
-1.35226 0.95 0.0
-1.28528 0.25 0.0
-1.28764 0.2 0.0
-1.28931 0.35 0.0
-1.32121 0.55 0.0
-1.29848 0.5 0.0
-1.28709 0.45 0.0
-1.2982 0.4 0.0
-1.29876 0.6 0.0
-1.31647 0.65 0.0
-1.29918 0.75 0.0
-1.29904 0.7 0.0
-1.28292 0.3 0.0
-1.24687 0 0.0
-1.24702 0.05 0.0
-1.24717 0.1 0.0
-1.24732 0.15 0.0
-1.29946 0.85 0.0
-1.29932 0.8 0.0
-1.29987 1 0.0
-1.29974 0.95 0.0
-1.30462 0.9 0.0
-1.24762 0.25 0.0
-1.23747 0.2 0.0
-1.24792 0.35 0.0
-1.22807 0.4 0.0
-1.27111 0.55 0.0
-1.24837 0.5 0.0
-1.24822 0.45 0.0
-1.24867 0.6 0.0
-1.26639 0.65 0.0
-1.26167 0.75 0.0
-1.24897 0.7 0.0
-1.23277 0.3 0.0
-1.19667 0 0.0
-1.19683 0.05 0.0
-1.18964 0.15 0.0
-1.19198 0.1 0.0
-1.25695 0.85 0.0
-1.24927 0.8 0.0
-1.25223 0.95 0.0
-1.24987 1 0.0
-1.24957 0.9 0.0
-1.1873 0.2 0.0
-1.18496 0.25 0.0
-1.18028 0.35 0.0
-1.17794 0.4 0.0
-1.1981 0.45 0.0
-1.19842 0.55 0.0
-1.19826 0.5 0.0
-1.19858 0.6 0.0
-1.19874 0.65 0.0
-1.19906 0.75 0.0
-1.1989 0.7 0.0
-1.18262 0.3 0.0
-1.14646 0 0.0
-1.14663 0.05 0.0
-1.1418 0.1 0.0
-1.13713 0.2 0.0
-1.14697 0.15 0.0
-1.20691 0.85 0.0
-1.20926 0.8 0.0
-1.20221 0.95 0.0
-1.19986 1 0.0
-1.20456 0.9 0.0
-1.13997 0.3 0.0
-1.14731 0.25 0.0
-1.13781 0.4 0.0
-1.13014 0.35 0.0
-1.12548 0.45 0.0
-1.14815 0.5 0.0
-1.15962 0.55 0.0
-1.14849 0.6 0.0
-1.15745 0.65 0.0
-1.16155 0.75 0.0
-1.14917 0.8 0.0
-1.14883 0.7 0.0
-1.09625 0 0.0
-1.09661 0.1 0.0
-1.09393 0.05 0.0
-1.09697 0.2 0.0
-1.08929 0.15 0.0
-1.15687 0.85 0.0
-1.14985 1 0.0
-1.15219 0.95 0.0
-1.14951 0.9 0.0
-1.09733 0.3 0.0
-1.08465 0.25 0.0
-1.09769 0.4 0.0
-1.08 0.35 0.0
-1.08661 0.45 0.0
-1.09804 0.5 0.0
-1.12082 0.55 0.0
-1.10916 0.8 0.0
-1.10629 0.7 0.0
-1.0984 0.6 0.0
-1.11616 0.65 0.0
-1.11149 0.75 0.0
-1.04604 0 0.0
-1.04623 0.05 0.0
-1.04642 0.1 0.0
-1.0468 0.2 0.0
-1.03911 0.15 0.0
-1.09948 0.9 0.0
-1.0993 0.85 0.0
-1.09984 1 0.0
-1.09966 0.95 0.0
-1.04718 0.3 0.0
-1.03449 0.25 0.0
-1.04756 0.4 0.0
-1.02986 0.35 0.0
-1.04775 0.45 0.0
-1.04794 0.5 0.0
-1.04813 0.55 0.0
-1.05911 0.8 0.0
-1.04831 0.6 0.0
-1.06376 0.7 0.0
-1.0485 0.65 0.0
-1.04888 0.75 0.0
-0.995833 0 0.0
-0.991231 0.1 0.0
-0.996033 0.05 0.0
-0.986629 0.2 0.0
-0.98893 0.15 0.0
-1.05447 0.9 0.0
-1.04926 0.85 0.0
-1.04983 1 0.0
-1.04964 0.95 0.0
-0.984328 0.25 0.0
-0.99703 0.3 0.0
-0.997429 0.4 0.0
-0.997628 0.45 0.0
-0.979726 0.35 0.0
-0.997827 0.5 0.0
-0.998027 0.55 0.0
-0.998226 0.6 0.0
-0.961416 0.475 0.0
-1.00907 0.8 0.0
-0.998426 0.65 0.0
-0.998625 0.7 0.0
-1.01138 0.75 0.0
-0.945625 0 0.0
-0.946044 0.1 0.0
-0.943334 0.05 0.0
-0.946463 0.2 0.0
-0.938752 0.15 0.0
-1.00444 0.9 0.0
-1.00675 0.85 0.0
-0.999821 1 0.0
-1.00213 0.95 0.0
-0.93417 0.25 0.0
-0.946881 0.3 0.0
-0.9473 0.4 0.0
-0.929588 0.35 0.0
-0.925005 0.45 0.0
-0.960371 0.525 0.0
-0.959325 0.575 0.0
-0.958279 0.625 0.0
-0.922714 0.5 0.0
-0.959017 0.8 0.0
-0.957233 0.675 0.0
-0.952999 0.7125 0.0
-0.948766 0.75 0.0
-0.895417 0 0.0
-0.895855 0.1 0.0
-0.893136 0.05 0.0
-0.896294 0.2 0.0
-0.888573 0.15 0.0
-0.949184 0.85 0.0
-0.954415 0.9 0.0
-0.949812 1 0.0
-0.949603 0.95 0.0
-0.884011 0.25 0.0
-0.896733 0.3 0.0
-0.874887 0.45 0.0
-0.879449 0.35 0.0
-0.897171 0.4 0.0
-0.920423 0.55 0.0
-0.918132 0.6 0.0
-0.915841 0.65 0.0
-0.872606 0.5 0.0
-0.908968 0.8 0.0
-0.91355 0.7 0.0
-0.898707 0.75 0.0
-0.845208 0 0.0
-0.845438 0.05 0.0
-0.845667 0.1 0.0
-0.845896 0.15 0.0
-0.833853 0.25 0.0
-0.846126 0.2 0.0
-0.899146 0.85 0.0
-0.904386 0.9 0.0
-0.899584 0.95 0.0
-0.899804 1 0.0
-0.838062 0.35 0.0
[...]
POINT_DATA 10839
VECTORS Velocity float
0.21 0 0.0
0.24 0 0.0
0.2275 0 0.0
0.2475 0 0.0
0.25 0 0.0
0.2475 0 0.0
0 0 0.0
0.0475 0 0.0
0.1275 0 0.0
0.09 0 0.0
0.09 0 0.0
0.1275 0 0.0
0.1875 0 0.0
0.16 0 0.0
0.195558 -3.64862e-05 0.0
0.242838 -3.74381e-05 0.0
0.215776 -4.35413e-05 0.0
0.231404 -4.50774e-05 0.0
0.24872 -2.81394e-05 0.0
0.24 0 0.0
0.242837 -2.46336e-06 0.0
0.248516 -1.38891e-05 0.0
0 0 0.0
0.0622236 -6.49929e-06 0.0
0.0322303 -4.66837e-06 0.0
0.16 0 0.0
0.1875 0 0.0
0.21 0 0.0
0.2275 0 0.0
0.193595 7.64431e-06 0.0
0.13889 -1.1555e-06 0.0
0 0 0.0
0.0475 0 0.0
0.0998429 -2.21746e-06 0.0
0.0622214 9.31981e-07 0.0
0.0998468 -1.17027e-05 0.0
0.138892 -1.80878e-05 0.0
0.174386 -5.6301e-05 0.0
0.201609 -8.54068e-05 0.0
0.235778 -8.82535e-05 0.0
0.244071 -7.61003e-05 0.0
0.223595 -0.00014267 0.0
0.249732 -4.87109e-05 0.0
0.249024 -2.86377e-05 0.0
0.231402 5.01494e-06 0.0
0.244069 -2.47072e-06 0.0
0 0 0.0
0.0361037 3.07537e-06 0.0
0.0736087 -5.57752e-06 0.0
0.0622275 2.66279e-05 0.0
0.17438 9.16977e-06 0.0
0.220163 1.88544e-05 0.0
0.201604 2.25356e-05 0.0
0.115556 -6.83158e-06 0.0
0.146691 1.77928e-07 0.0
0 0 0.0
0.0360942 -4.27516e-07 0.0
0.0693701 -5.06722e-06 0.0
0.0899947 -2.28391e-05 0.0
0.109397 -1.83941e-05 0.0
0.1467 -4.34306e-05 0.0
0.178922 -0.000106019 0.0
0.206301 -0.000153196 0.0
0.214501 -0.000223323 0.0
0.238499 -0.000143871 0.0
0.247309 -0.000106926 0.0
0.229573 -0.000231674 0.0
0.22632 4.45341e-05 0.0
0.24994 -5.60772e-05 0.0
0.246392 -9.34254e-06 0.0
0.236663 2.54266e-05 0.0
0 0 0.0
0.0321912 2.92833e-05 0.0
0.095707 2.62132e-05 0.0
0.0693636 0.000113727 0.0
0.178906 2.72455e-05 0.0
0.206285 5.30651e-05 0.0
0.127524 -2.39668e-05 0.0
0.16595 3.45662e-05 0.0
0.15237 6.00278e-06 0.0
0 0 0.0
0.0360846 -9.85634e-06 0.0
0.0621937 -4.71858e-05 0.0
0.0956663 -7.01366e-05 0.0
0.127555 -3.43629e-05 0.0
0.156708 -0.00010297 0.0
0.115669 1.62754e-05 0.0
0.193679 -0.000254225 0.0
0.218128 -0.000336686 0.0
0.240877 -0.000200707 0.0
0.247657 -0.000149165 0.0
0.249914 -8.3445e-05 0.0
0.23431 -0.000339868 0.0
0.229558 7.97232e-05 0.0
0.247652 -1.65039e-05 0.0
0.240865 4.26455e-05 0.0
0 0 0.0
0.0342978 6.83086e-05 0.0
0.103209 9.72738e-05 0.0
0.0621136 0.000168444 0.0
0.189788 8.23859e-05 0.0
0.21302 0.000149592 0.0
0.170683 8.85988e-05 0.0
0.144478 -8.01798e-06 0.0
0 0 0.0
0.0398556 -5.23105e-05 0.0
0.0998889 -0.000146047 0.0
0.0692974 -0.000146211 0.0
0.170742 -0.000215857 0.0
0.144535 -9.09077e-05 0.0
0.124614 7.18642e-06 0.0
0.183786 -0.000345157 0.0
0.204187 -0.000449478 0.0
0.221982 -0.0005107 0.0
0.248949 -4.28277e-05 0.0
0.243888 -0.000271989 0.0
0.248956 -0.000174812 0.0
0.238352 -0.000463686 0.0
0.234283 0.000140199 0.0
0.244726 6.62065e-05 0.0
0 0 0.0
0.031906 7.98667e-05 0.0
0.094177 0.000159839 0.0
0.0649564 0.000157088 0.0
0.196823 0.000221262 0.0
0.217881 0.000278866 0.0
0.177747 0.000267335 0.0
0.14899 3.45257e-05 0.0
0.120567 -0.000115774 0.0
0 0 0.0
0.0342401 -7.8404e-05 0.0
0.0715952 -0.000223811 0.0
0.152723 -0.00022195 0.0
0.128069 -9.47284e-05 0.0
0.187788 -0.000546333 0.0
0.211966 -0.000713648 0.0
0.248325 3.87031e-06 0.0
0.225534 -0.000742436 0.0
0.249486 -0.000185127 0.0
0.246204 -0.000334463 0.0
0.241678 -0.000591905 0.0
0.238318 0.000207793 0.0
0 0 0.0
0.0333199 5.56507e-05 0.0
0.100325 -2.67685e-05 0.0
0.0694127 -9.11435e-05 0.0
0.206387 0.000439776 0.0
0.22235 0.000468706 0.0
0.190367 0.000635766 0.0
0.16883 0.000420883 0.0
0.143643 0.000142569 0.0
0.124653 -8.24057e-05 0.0
0.0973275 -0.000218137 0.0
0 0 0.0
0.0356938 -0.000108515 0.0
0.067185 -0.000188822 0.0
0.131082 -0.000399181 0.0
0.168964 -0.000610403 0.0
0.199644 -0.000896827 0.0
0.218274 -0.00100094 0.0
0.241636 0.00027597 0.0
0.249512 -0.000154643 0.0
0.247535 7.72776e-05 0.0
0.228745 -0.00103533 0.0
0.244255 -0.00070274 0.0
0.248187 -0.000375011 0.0
0.234147 0.000514613 0.0
0 0 0.0
0.0357261 -5.81832e-05 0.0
0.123645 -0.000863668 0.0
0.0715327 -0.000575508 0.0
0.20848 0.000760536 0.0
0.224914 0.000823828 0.0
0.198406 0.00106928 0.0
0.178424 0.000859438 0.0
0.147481 0.000499979 0.0
0.11992 0.000147206 0.0
0.0974232 -0.000129118 0.0
0 0 0.0
0.0344634 -6.77751e-05 0.0
0.0672116 -2.66517e-05 0.0
0.15325 -0.00102809 0.0
0.178597 -0.00114718 0.0
0.210112 -0.0013118 0.0
0.244216 0.000339459 0.0
0.248658 -1.14452e-05 0.0
0.231576 -0.00138284 0.0
0.243205 -0.000961597 0.0
0.248726 -0.000182434 0.0
0.248247 -0.000437562 0.0
0.235329 0.00079741 0.0
0.21274 -0.0020829 0.0
0 0 0.0
0.0370913 -0.000258996 0.0
0.142378 -0.00179391 0.0
0.101367 -0.00180675 0.0
0.0676658 -0.00106414 0.0
0.213611 0.00120271 0.0
0.187291 0.00147673 0.0
0.166182 0.00125226 0.0
0.123407 0.000737184 0.0
0.0934827 0.000298824 0.0
0 0 0.0
0.0344711 2.53449e-05 0.0
0.0645265 0.000380997 0.0
0.166604 -0.00187279 0.0
0.18751 -0.00187146 0.0
0.159351 -0.00288519 0.0
0.246022 0.000354939 0.0
0.247022 0.000255876 0.0
0.2301 -0.00191604 0.0
0.239184 -0.00152161 0.0
0.247079 -0.000736506 0.0
0.239188 0.000899338 0.0
0.228494 0.00151006 0.0
0.199318 -0.0026693 0.0
0.217884 -0.00274829 0.0
0 0 0.0
0.0354009 -0.000439296 0.0
0.128003 -0.00337328 0.0
0.0703856 -0.00166626 0.0
0.101222 -0.00296401 0.0
0.208085 0.00210881 0.0
0.190404 0.0022185 0.0
0.169345 0.00217178 0.0
0.142102 0.00158769 0.0
0.0965849 0.00106827 0.0
0 0 0.0
0.0332106 0.000180506 0.0
0.0673322 0.00100463 0.0
0.183844 -0.00339347 0.0
0.160467 -0.00419159 0.0
0.243139 0.000881228 0.0
0.247193 6.07146e-05 0.0
0.234223 -0.00233141 0.0
0.242647 -0.00158094 0.0
0.246924 -0.000753394 0.0
0.236896 0.0016049 0.0
0.217629 0.0026901 0.0
0.202777 -0.00380277 0.0
0.221907 -0.00338958 0.0
0 0 0.0
0.0504878 -0.00115225 0.0
0.130287 -0.00509921 0.0
0.0944217 -0.00365684 0.0
0.202587 0.00307414 0.0
0.178933 0.00332787 0.0
0.14961 0.00333239 0.0
0.120542 0.00228286 0.0
0.0807144 0.00205056 0.0
0 0 0.0
0.0351056 0.000402003 0.0
0.187866 -0.00503284 0.0
0.161439 -0.00576291 0.0
0.243747 0.000997823 0.0
0.246538 -0.000289098 0.0
0.237275 -0.00268052 0.0
0.243688 -0.00170293 0.0
0.23711 0.00210817 0.0
0.225381 0.00312546 0.0
0.2089 0.00398173 0.0
0.225279 -0.00403638 0.0
0.208982 -0.00488735 0.0
0 0 0.0
0.0530624 -0.00152227 0.0
0.131399 -0.00705709 0.0
0.0968499 -0.00472558 0.0
0.18751 0.00461774 0.0
0.161053 0.00502854 0.0
0.050068 0.00110252 0.0
0.129816 0.00483193 0.0
0.0936388 0.00338415 0.0
0 0 0.0
0.187233 -0.00698476 0.0
0.161283 -0.00795653 0.0
0.243437 0.00110878 0.0
0.24509 -0.000342489 0.0
0.236007 -0.00345871 0.0
0.242078 -0.00216406 0.0
0.224263 0.0042416 0.0
0.235819 0.00282768 0.0
0.186779 0.00653711 0.0
0.207959 0.0054776 0.0
0.224312 -0.00506766 0.0
0.207986 -0.00653435 0.0
0 0 0.0
0.0563037 -0.00183893 0.0
0.133074 -0.00891496 0.0
0.100825 -0.00589784 0.0
0.130832 0.0067786 0.0
0.16081 0.00715712 0.0
0.0524101 0.0014707 0.0
0.0962649 0.00458722 0.0
0 0 0.0
0.186271 -0.00921764 0.0
0.161228 -0.0102578 0.0
0.241814 0.00150048 0.0
0.243253 -0.000376659 0.0
0.223031 -0.00625112 0.0
0.233551 -0.00484019 0.0
0.240095 -0.00268443 0.0
0.22299 0.0053344 0.0
0.234095 0.00368991 0.0
0.185989 0.00815106 0.0
0.20658 0.00725983 0.0
0.206571 -0.00845535 0.0
0 0 0.0
0.0600323 -0.00210551 0.0
0.135942 -0.0106898 0.0
0.105202 -0.00665531 0.0
0.132073 0.00834592 0.0
0.160581 0.0093915 0.0
0.0555768 0.00177883 0.0
0.099634 0.00561503 0.0
0 0 0.0
0.161501 -0.0124018 0.0
0.184871 -0.0121502 0.0
0.239723 0.00194655 0.0
0.240894 -0.000429821 0.0
0.231645 -0.00575259 0.0
0.220234 -0.00847335 0.0
0.23755 -0.00328969 0.0
0.231876 0.00470186 0.0
0.221406 0.00656431 0.0
0.184811 0.0104265 0.0
0.204779 0.00926064 0.0
0.204733 -0.010569 0.0
0 0 0.0
0.063654 -0.00217472 0.0
0.138712 -0.0115659 0.0
0.110193 -0.00702568 0.0
0.134281 0.00992972 0.0
0.160672 0.0115389 0.0
0 0 0.0
0.103864 0.00634398 0.0
0.0588774 0.00197213 0.0
0.18376 -0.0143042 0.0
0.162354 -0.014171 0.0
0.218049 -0.00992255 0.0
0.23711 0.00246321 0.0
0.237999 -0.000482683 0.0
0.235179 -0.0038019 0.0
0.229456 -0.00671566 0.0
0.229103 0.00581133 0.0
0.219009 0.00819074 0.0
0.18324 0.0131683 0.0
0.202614 0.0113113 0.0
0.202606 -0.0126848 0.0
0 0 0.0
0.0677099 -0.00208615 0.0
0.114945 -0.00700986 0.0
0.142612 -0.0120388 0.0
0.137752 0.0111617 0.0
0.161254 0.0133027 0.0
0 0 0.0
0.0628143 0.00206291 0.0
0.108104 0.00671792 0.0
0.183144 -0.0155707 0.0
0.163886 -0.0152218 0.0
0.215632 -0.0113154 0.0
0.224724 -0.0084253 0.0
0.233896 0.00300928 0.0
0.234482 -0.000542468 0.0
0.232457 -0.0043287 0.0
0.225775 0.00693383 0.0
0.216136 0.00982759 0.0
0.182468 0.0144718 0.0
0.200286 0.0131494 0.0
0.200375 -0.0144981 0.0
0 0 0.0
0.0714973 -0.00189138 0.0
0.147984 -0.0117166 0.0
0.120918 -0.00652832 0.0
0.140934 0.0115458 0.0
0.162503 0.0144595 0.0
0.0664472 0.00202359 0.0
0 0 0.0
0.113691 0.00670851 0.0
0.166128 -0.0154685 0.0
0.182738 -0.0167697 0.0
0.211249 -0.0131212 0.0
0.220797 -0.00944412 0.0
0.228443 -0.00494534 0.0
0.228181 0.00376212 0.0
0.23037 -0.0006172 0.0
0.221947 0.00790254 0.0
0.211708 0.0116854 0.0
0.18172 0.0158027 0.0
0.197987 0.0144682 0.0
0.198242 -0.0157259 0.0
0 0 0.0
0.0750113 -0.00166415 0.0
0.125991 -0.0058533 0.0
0.168964 -0.0148784 0.0
0.152043 -0.0110151 0.0
0.145228 0.0113581 0.0
0.164019 0.0147894 0.0
0.0700202 0.00182308 0.0
0 0 0.0
0.118368 0.0063515 0.0
0.196687 -0.0161618 0.0
0.182984 -0.0168072 0.0
0.217477 -0.00995336 0.0
0.20802 -0.0137435 0.0
0.221811 -0.00558356 0.0
0.22575 -0.000700863 0.0
0.224725 0.00403131 0.0
0.217795 0.00854029 0.0
0.208931 0.0123286 0.0
0.181723 0.0159154 0.0
0.167074 0.0142339 0.0
0.195958 0.015005 0.0
0 0 0.0
0.130205 -0.00502345 0.0
0.0779572 -0.0014391 0.0
0.171593 -0.0138476 0.0
0.157574 -0.00953194 0.0
0.149836 0.0105359 0.0
0 0 0.0
0.0732322 0.00154801 0.0
0.123793 0.0055566 0.0
0.195462 -0.0159102 0.0
0.183938 -0.0157382 0.0
0.214149 -0.0101716 0.0
0.204976 -0.013616 0.0
0.218175 -0.0057022 0.0
0.220845 -0.000788512 0.0
0.221083 0.00414783 0.0
0.169436 0.0132415 0.0
0.19456 0.0147342 0.0
0.213565 0.00865918 0.0
0.206241 0.0124656 0.0
0.182192 0.0152406 0.0
0 0 0.0
0.0801532 -0.0011604 0.0
0.134255 -0.00409901 0.0
0.174916 -0.0121237 0.0
0.162064 -0.00798304 0.0
0.128135 0.00461957 0.0
0.155077 0.00901762 0.0
0 0 0.0
0.0761583 0.00122197 0.0
0.194491 -0.0148252 0.0
0.185282 -0.0140772 0.0
0.21014 -0.00991293 0.0
0.202362 -0.0127823 0.0
0.214495 -0.00566423 0.0
0.215868 -0.000910573 0.0
0.214118 0.00387548 0.0
0.172531 0.011419 0.0
0.209458 0.00817951 0.0
0.193506 0.0138132 0.0
0.202209 0.0115288 0.0
0.183414 0.0132263 0.0
0 0 0.0
0.137814 -0.00311009 0.0
0.0821826 -0.000842064 0.0
0.178733 -0.00970377 0.0
0.165951 -0.00641233 0.0
0.131527 0.00368086 0.0
0.159361 0.00737734 0.0
0 0 0.0
0.0781074 0.00101098 0.0
0.186783 -0.0120058 0.0
0.193927 -0.0131283 0.0
0.206523 -0.00917074 0.0
0.210095 -0.00537499 0.0
0.200221 -0.0113863 0.0
0.211196 -0.00104149 0.0
0.209725 0.00330708 0.0
0.205761 0.00719092 0.0
0.207979 -0.00314803 0.0
0.175615 0.00927638 0.0
0.199812 0.0100252 0.0
0.192529 0.011397 0.0
0.184403 0.0115882 0.0
0 0 0.0
0.140167 -0.0024216 0.0
0.0836399 -0.000670464 0.0
0.181119 -0.00812803 0.0
0.169214 -0.00497896 0.0
0.134528 0.00268758 0.0
0.16254 0.00590824 0.0
0 0 0.0
0.0796821 0.000695423 0.0
0.188341 -0.00983367 0.0
0.193765 -0.0111135 0.0
0.20344 -0.00813005 0.0
0.198587 -0.00972813 0.0
0.204713 -0.00471102 0.0
0.20765 0.000818819 0.0
0.205185 0.00451004 0.0
0.200876 0.0074516 0.0
0.205244 -0.00132127 0.0
0.178329 0.00704026 0.0
0.195295 0.00917368 0.0
0.190671 0.00931186 0.0
0.18605 0.0085527 0.0
0 0 0.0
0.142163 -0.00182787 0.0
0.0846947 -0.000498548 0.0
0.183618 -0.00635588 0.0
0.171835 -0.00380404 0.0
0.166021 0.00403042 0.0
0.136781 0.00179889 0.0
0 0 0.0
0.0809146 0.000401726 0.0
0.18981 -0.00783358 0.0
0.193826 -0.00909478 0.0
0.201807 -0.00421805 0.0
0.197406 -0.00806836 0.0
0.200986 -0.00696795 0.0
0.203943 0.00203882 0.0
0.201015 0.00487376 0.0
0.19688 0.00677567 0.0
0.202118 -0.0015407 0.0
0.180646 0.00497984 0.0
0.192103 0.00742313 0.0
0.187311 0.00619123 0.0
0 0 0.0
0.0853958 -0.000400911 0.0
0.143717 -0.00139832 0.0
0.1736 -0.00303679 0.0
0.191087 -0.00617281 0.0
0.185699 -0.00492916 0.0
0.168293 0.00261485 0.0
0.138332 0.00108888 0.0
0.0814664 0.000243651 0.0
0 0 0.0
0.196722 -0.00684518 0.0
0.194063 -0.00731953 0.0
0.200042 -0.00389585 0.0
0.199111 -0.00590508 0.0
0.195648 0.00474389 0.0
0.201052 0.00110513 0.0
0.19878 0.00331257 0.0
0.199714 -0.00179969 0.0
0.18833 0.00408077 0.0
0.182678 0.0028679 0.0
0.192042 0.00454471 0.0
0 0 0.0
0.0861051 -0.000325399 0.0
0.144965 -0.00112436 0.0
0.17523 -0.00238191 0.0
0.19196 -0.00519711 0.0
0.187679 -0.00373767 0.0
0.169844 0.00147874 0.0
0.13938 0.000469793 0.0
0.0817886 8.60994e-05 0.0
0 0 0.0
0.170931 0.000585627 0.0
0.196248 -0.0058294 0.0
0.194452 -0.00556666 0.0
0.197315 -0.00477139 0.0
0.198632 -0.00365019 0.0
0.194497 0.00231617 0.0
0.197097 0.00185153 0.0
0.19884 0.000198324 0.0
0.19792 -0.00209447 0.0
0.189142 0.00232322 0.0
0.183923 0.00148813 0.0
0.192081 0.00266352 0.0
0 0 0.0
0.0866783 -0.00028286 0.0
0.145915 -0.00101007 0.0
0.17651 -0.00202884 0.0
0.192914 -0.00426659 0.0
0.188956 -0.0031403 0.0
0.081771 -3.1975e-05 0.0
0.139867 4.83711e-05 0.0
0 0 0.0
0.171399 1.17804e-05 0.0
0.195913 -0.00494863 0.0
0.19481 -0.00469128 0.0
0.196528 -0.0042896 0.0
0.197281 -0.00348303 0.0
0.193998 0.00108766 0.0
0.195844 0.000569108 0.0
0.196635 -0.00244159 0.0
0.196584 -0.000994579 0.0
0.189536 0.0012477 0.0
0.184666 0.000424707 0.0
0.192074 0.00112706 0.0
0 0 0.0
0.0872657 -0.000296847 0.0
0.146704 -0.00101109 0.0
0.17767 -0.00186788 0.0
0.19388 -0.00363729 0.0
0.195154 -0.00420093 0.0
0.189972 -0.00285914 0.0
0.0817352 -0.000127784 0.0
0.139963 -0.000258632 0.0
0 0 0.0
0.171672 -0.000501172 0.0
0.19571 -0.0042972 0.0
0.196093 -0.00410326 0.0
0.196339 -0.00348654 0.0
0.195917 -0.00273496 0.0
0.193594 4.04431e-05 0.0
0.194922 -0.000527214 0.0
0.195555 -0.00172529 0.0
0.185123 -0.000391303 0.0
0.189883 9.19838e-05 0.0
0.192023 -9.42585e-05 0.0
0 0 0.0
0.0878265 -0.000372194 0.0
0.147551 -0.00109633 0.0
0.178593 -0.00194099 0.0
0.194405 -0.0035204 0.0
0.195492 -0.00402731 0.0
0.190851 -0.00282098 0.0
0.0814981 -0.000205243 0.0
0.139855 -0.000485415 0.0
0 0 0.0
0.185181 -0.000895009 0.0
0.139509 -0.00064761 0.0
0.171592 -0.000935048 0.0
0.195717 -0.00421326 0.0
0.195796 -0.00406046 0.0
0.195482 -0.00377531 0.0
0.195373 -0.00305475 0.0
0.194948 -0.00225593 0.0
0.193189 -0.00100661 0.0
0.19401 -0.00179591 0.0
0.190015 -0.000989461 0.0
0.191939 -0.000939044 0.0
0.195776 -0.00431595 0.0
0 0 0.0
0.0884854 -0.000427625 0.0
0.179487 -0.0021474 0.0
0.148423 -0.00127146 0.0
0.195847 -0.00415715 0.0
0.195149 -0.00363869 0.0
0.191616 -0.00300294 0.0
0.0811862 -0.000248688 0.0
0 0 0.0
0.189994 -0.00150801 0.0
0.185157 -0.00140745 0.0
0.171384 -0.0012381 0.0
0.0806327 -0.000256232 0.0
0.139111 -0.000793259 0.0
0.195579 -0.00423828 0.0
0.19519 -0.00406266 0.0
0.194819 -0.00354384 0.0
0.194504 -0.00396599 0.0
0.194465 -0.00276556 0.0
0.192825 -0.00187875 0.0
0.193511 -0.00256905 0.0
0.191772 -0.0016362 0.0
0.195843 -0.00458051 0.0
0.089184 -0.00051689 0.0
0 0 0.0
0.180211 -0.00241117 0.0
0.149357 -0.00150229 0.0
0.196184 -0.00451959 0.0
0.195585 -0.0038961 0.0
0.192381 -0.00336627 0.0
0 0 0.0
0.189792 -0.00208617 0.0
0.184813 -0.00190413 0.0
0.170962 -0.00144911 0.0
0.0802157 -0.000298937 0.0
0.138512 -0.000917976 0.0
0.195416 -0.00481581 0.0
0.194971 -0.0044246 0.0
0.194229 -0.00442323 0.0
0.193777 -0.00369567 0.0
0.192468 -0.00262587 0.0
0.193081 -0.00328286 0.0
0.191435 -0.00253065 0.0
0.195996 -0.00511266 0.0
0 0 0.0
0.0901756 -0.000616238 0.0
0.181154 -0.00284851 0.0
0.150361 -0.00178331 0.0
0.193116 -0.00389775 0.0
0.196542 -0.00510683 0.0
0.196282 -0.00455025 0.0
0 0 0.0
0 0 0.0
0.189468 -0.00259883 0.0
0.184459 -0.00228188 0.0
0.170472 -0.00168603 0.0
0.137834 -0.00103761 0.0
0.0796704 -0.000351096 0.0
0.195364 -0.00544623 0.0
0.194734 -0.00503113 0.0
0.192749 -0.00383336 0.0
0.193907 -0.00511064 0.0
0.193368 -0.00438418 0.0
0.192087 -0.00331161 0.0
0.191065 -0.00313329 0.0
0.195326 -0.00608276 0.0
0.19612 -0.00584492 0.0
0.0913845 -0.000750611 0.0
0.151617 -0.00214345 0.0
0.182253 -0.00342577 0.0
0.193819 -0.00445675 0.0
0.196903 -0.00588913 0.0
0.196718 -0.00514088 0.0
0 0 0.0
0 0 0.0
0.183966 -0.00255702 0.0
0.188879 -0.00318188 0.0
0.13709 -0.00114275 0.0
0.16967 -0.00194688 0.0
0.0790265 -0.00038619 0.0
0.194452 -0.00611834 0.0
0.193573 -0.00590725 0.0
0.190623 -0.00371081 0.0
0.192402 -0.00438482 0.0
0.193061 -0.0049513 0.0
0.191494 -0.00419281 0.0
0.195288 -0.00680045 0.0
0.196331 -0.00715042 0.0
0.197256 -0.00690818 0.0
0.0928073 -0.000963442 0.0
0.153214 -0.00262943 0.0
0.183646 -0.00432101 0.0
0.194685 -0.00529452 0.0
0.197472 -0.00634288 0.0
0 0 0.0
0 0 0.0
0.183186 -0.00297033 0.0
0.188316 -0.00365507 0.0
0.136175 -0.00127823 0.0
0.168852 -0.00217853 0.0
0.0783196 -0.000417529 0.0
0.192737 -0.00555389 0.0
0.193209 -0.00679328 0.0
0.194196 -0.00707989 0.0
0.190083 -0.00428117 0.0
0.191943 -0.00510807 0.0
0.190975 -0.00487111 0.0
0.187637 -0.00413431 0.0
0.195132 -0.00836396 0.0
0 0 0.0
0.196389 -0.00840885 0.0
0.198123 -0.00757801 0.0
0.197584 -0.00813259 0.0
0.0945033 -0.00119356 0.0
0.184974 -0.00514665 0.0
0.155349 -0.00337718 0.0
0.195877 -0.00668508 0.0
0 0 0.0
0 0 0.0
0 0 0.0
0 0 0.0
0 0 0.0
0.0776091 -0.000448543 0.0
0.167988 -0.00242207 0.0
0.182425 -0.00332942 0.0
0.13533 -0.00138786 0.0
0.192268 -0.00638185 0.0
0.192764 -0.00780549 0.0
0.193905 -0.0081811 0.0
0.190471 -0.00542894 0.0
0.189424 -0.00487033 0.0
0.191169 -0.0061917 0.0
0.188796 -0.00538782 0.0
0.187007 -0.00449558 0.0
0.194893 -0.00974316 0.0
0.196406 -0.00983448 0.0
0 0 0.0
-0.000450081 0.000261216 0.0
0 0 0.0
-0.000796611 0.00879739 0.0
0.197891 -0.00965713 0.0
0.198626 -0.00869072 0.0
0.0968209 -0.00153029 0.0
0.186659 -0.00631923 0.0
0.157731 -0.0042791 0.0
0.197046 -0.00819903 0.0
0 0 0.0
0 0 0.0
0 0 0.0
-0.000671561 0.00646775 0.0
-0.000525396 0.00162758 0.0
-0.00141834 0.00146969 0.0
0 0 0.0
0.0767682 -0.000487103 0.0
0.167088 -0.00262269 0.0
0.181508 -0.00369796 0.0
0.134112 -0.00152626 0.0
0.191725 -0.00730687 0.0
0.192211 -0.00893828 0.0
0.193497 -0.0094303 0.0
0.189895 -0.00602434 0.0
0.190642 -0.00687695 0.0
0.188058 -0.00591548 0.0
0.185834 -0.00512612 0.0
0.194552 -0.0112983 0.0
0.195875 -0.0113844 0.0
0.197227 -0.0112813 0.0
0 0 0.0
-0.00166685 0.000569553 0.0
0 0 0.0
0 0 0.0
-0.00265478 0.0151164 0.0
-0.00277131 0.0118941 0.0
0.198451 -0.0110772 0.0
0.199263 -0.0105105 0.0
0.160299 -0.00532895 0.0
0.0995186 -0.00199382 0.0
0.188656 -0.00786817 0.0
0.198226 -0.0100916 0.0
0 0 0.0
-0.00187805 0.00544856 0.0
-0.00235084 0.00851227 0.0
-0.00229473 0.00363861 0.0
-0.00364031 0.00234284 0.0
0 0 0.0
0.075877 -0.000526491 0.0
0.165951 -0.00286616 0.0
0.180441 -0.00406571 0.0
0.13292 -0.00165534 0.0
0.191062 -0.00831422 0.0
0.191522 -0.0101802 0.0
0.192943 -0.0108437 0.0
0.188795 -0.00706086 0.0
0.190033 -0.00758487 0.0
0.187067 -0.00657435 0.0
0.179338 -0.00446038 0.0
0.184779 -0.00565316 0.0
0.194134 -0.0126959 0.0
0.196122 -0.0128526 0.0
0.198167 -0.0130138 0.0
0 0 0.0
-0.00387896 0.000815119 0.0
0 0 0.0
0 0 0.0
0 0 0.0
0 0 0.0
-0.00534489 0.0112865 0.0
-0.000862224 0.0130932 0.0
-0.00275549 0.0178867 0.0
-0.00588431 0.0196899 0.0
-0.00514733 0.0155902 0.0
0 0 0.0
-0.000399598 0.0196769 0.0
0.199938 -0.0133903 0.0
0.199268 -0.0119642 0.0
0 0 0.0
0.103403 -0.00273102 0.0
0.163855 -0.00678982 0.0
0.191403 -0.0104355 0.0
0 0 0.0
0 0 0.0
-0.00455979 0.00772352 0.0
-0.00518033 0.00501286 0.0
-0.00655518 0.00277066 0.0
0 0 0.0
0.074854 -0.000567452 0.0
0.164503 -0.003154 0.0
0.131584 -0.0017828 0.0
0.178242 -0.00475543 0.0
0.19026 -0.00940899 0.0
0.190884 -0.0111908 0.0
0.192215 -0.0124324 0.0
0.187972 -0.00772408 0.0
0.189145 -0.00852788 0.0
0.18594 -0.00724649 0.0
0.183831 -0.0060403 0.0
0.196969 -0.0144188 0.0
0.193563 -0.0142358 0.0
0.195495 -0.0158325 0.0
0.198008 -0.0162629 0.0
0.200327 -0.0163962 0.0
0 0 0.0
-0.005629 0.000802089 0.0
-0.000642538 0.0193625 0.0
-0.00272279 0.0285606 0.0
-0.000918931 0.0158189 0.0
-0.00779133 0.0136165 0.0
-0.0102068 0.0103886 0.0