# vtk DataFile Version 3.0
Mesh NS-CD Problem
ASCII
DATASET UNSTRUCTURED_GRID
POINTS 10839 float
-2 0.3 0.0
-2 0.4 0.0
-2 0.35 0.0
-2 0.45 0.0
-2 0.5 0.0
-2 0.55 0.0
-2 0 0.0
-2 0.05 0.0
-2 0.85 0.0
-2 0.9 0.0
-2 0.1 0.0
-2 0.15 0.0
-2 0.25 0.0
-2 0.2 0.0
-1.96653 0.266667 0.0
-1.96524 0.415385 0.0
-1.96485 0.315 0.0
-1.96348 0.363636 0.0
-1.96414 0.464286 0.0
-2 0.6 0.0
-1.96538 0.584615 0.0
-1.96538 0.538462 0.0
-1.94979 0 0.0
-1.96653 0.0666666 0.0
-1.93306 0.0333333 0.0
-2 0.8 0.0
-2 0.75 0.0
-2 0.7 0.0
-2 0.65 0.0
-1.96249 0.7375 0.0
-1.96666 0.833333 0.0
-2 1 0.0
-2 0.95 0.0
-1.96249 0.8875 0.0
-1.96666 0.933333 0.0
-1.96234 0.1125 0.0
-1.96653 0.166667 0.0
-1.93724 0.225 0.0
-1.92971 0.28 0.0
-1.93048 0.380769 0.0
-1.93048 0.423077 0.0
-1.89958 0.3375 0.0
-1.9292 0.484203 0.0
-1.92117 0.530907 0.0
-1.96363 0.636364 0.0
-1.93076 0.576923 0.0
-1.89958 0 0.0
-1.88703 0.0375 0.0
-1.90963 0.08 0.0
-1.86611 0.0666666 0.0
-1.93749 0.775 0.0
-1.93635 0.672727 0.0
-1.92999 0.72 0.0
-1.93332 0.866667 0.0
-1.92856 0.821429 0.0
-1.94999 1 0.0
-1.92499 0.9625 0.0
-1.92499 0.925 0.0
-1.89998 0.9 0.0
-1.89958 0.125 0.0
-1.92827 0.178571 0.0
-1.89958 0.233333 0.0
-1.89045 0.290909 0.0
-1.86096 0.311538 0.0
-1.89241 0.392857 0.0
-1.89334 0.448489 0.0
-1.85655 0.357143 0.0
-1.89614 0.653846 0.0
-1.89427 0.504121 0.0
-1.8952 0.559753 0.0
-1.89614 0.615385 0.0
-1.84937 0 0.0
-1.83264 0.0333333 0.0
-1.85655 0.107143 0.0
-1.81172 0.075 0.0
-1.89998 0.766667 0.0
-1.89089 0.709091 0.0
-1.87498 0.85 0.0
-1.85998 0.79 0.0
-1.88748 0.8125 0.0
-1.89998 1 0.0
-1.88748 0.9625 0.0
-1.86664 0.933333 0.0
-1.85712 0.892857 0.0
-1.87448 0.15 0.0
-1.86611 0.194444 0.0
-1.83264 0.133333 0.0
-1.83264 0.2625 0.0
-1.82068 0.321429 0.0
-1.85664 0.404762 0.0
-1.85674 0.452381 0.0
-1.85683 0.5 0.0
-1.81184 0.375 0.0
-1.85712 0.642857 0.0
-1.85693 0.547619 0.0
-1.85702 0.595238 0.0
-1.79917 0 0.0
-1.78482 0.0357143 0.0
-1.79917 0.116667 0.0
-1.76569 0.0666666 0.0
-1.85452 0.745455 0.0
-1.82689 0.692308 0.0
-1.81815 0.781818 0.0
-1.82497 0.825 0.0
-1.84997 1 0.0
-1.8333 0.958333 0.0
-1.81247 0.8875 0.0
-1.81247 0.925 0.0
-1.81742 0.218182 0.0
-1.82427 0.175 0.0
-1.77634 0.145455 0.0
-1.79144 0.242308 0.0
-1.78482 0.285714 0.0
-1.77469 0.332653 0.0
-1.81215 0.529762 0.0
-1.81194 0.422619 0.0
-1.81203 0.470238 0.0
-1.76714 0.392857 0.0
-1.81234 0.625 0.0
-1.79732 0.571429 0.0
-1.74896 0 0.0
-1.73222 0.0333333 0.0
-1.75398 0.105 0.0
-1.71883 0.07 0.0
-1.79227 0.730769 0.0
-1.78007 0.679121 0.0
-1.75765 0.769231 0.0
-1.78178 0.818182 0.0
-1.78996 0.86 0.0
-1.79996 1 0.0
-1.78568 0.964286 0.0
-1.76663 0.922222 0.0
-1.76569 0.1875 0.0
-1.73222 0.15 0.0
-1.74896 0.25 0.0
-1.73714 0.304762 0.0
-1.76743 0.537202 0.0
-1.72869 0.343878 0.0
-1.76732 0.485119 0.0
-1.76723 0.440476 0.0
-1.72243 0.410714 0.0
-1.76757 0.607143 0.0
-1.69875 0 0.0
-1.68369 0.035 0.0
-1.69875 0.1125 0.0
-1.66528 0.075 0.0
-1.74341 0.708974 0.0
-1.73324 0.665934 0.0
-1.70441 0.74478 0.0
-1.71423 0.785714 0.0
-1.72303 0.826923 0.0
-1.74541 0.854545 0.0
-1.74541 0.890909 0.0
-1.74996 1 0.0
-1.73745 0.9625 0.0
-1.71359 0.927273 0.0
-1.68716 0.153846 0.0
-1.7131 0.214286 0.0
-1.70725 0.275 0.0
-1.69712 0.321939 0.0
-1.72279 0.589286 0.0
-1.72261 0.5 0.0
-1.7227 0.544643 0.0
-1.6827 0.355102 0.0
-1.67773 0.428571 0.0
-1.70763 0.464286 0.0
-1.70369 0.62449 0.0
-1.64854 0 0.0
-1.63181 0.0375 0.0
-1.64137 0.142857 0.0
-1.61764 0.0769231 0.0
-1.69458 0.703846 0.0
-1.67471 0.657437 0.0
-1.66143 0.727637 0.0
-1.67125 0.768571 0.0
-1.67851 0.821429 0.0
-1.68841 0.861538 0.0
-1.70904 0.890909 0.0
-1.69995 1 0.0
-1.68176 0.963636 0.0
-1.67267 0.927273 0.0
-1.65427 0.187143 0.0
-1.66718 0.231429 0.0
-1.66554 0.3 0.0
-1.67802 0.571429 0.0
-1.67792 0.523809 0.0
-1.6367 0.366327 0.0
-1.63682 0.423469 0.0
-1.62568 0.502976 0.0
-1.6629 0.470238 0.0
-1.65254 0.618367 0.0
-1.6059 0.307143 0.0
-1.59833 0 0.0
-1.58288 0.0384615 0.0
-1.60563 0.169643 0.0
-1.58179 0.112271 0.0
-1.56964 0.0714286 0.0
-1.64574 0.690385 0.0
-1.62827 0.751429 0.0
-1.63371 0.791071 0.0
-1.64279 0.857143 0.0
-1.65378 0.896154 0.0
-1.64994 1 0.0
-1.6363 0.963636 0.0
-1.61916 0.930769 0.0
-1.61345 0.209107 0.0
-1.62126 0.248571 0.0
-1.56989 0.196429 0.0
-1.63324 0.553571 0.0
-1.58846 0.535714 0.0
-1.59408 0.361905 0.0
-1.59161 0.402211 0.0
-1.58832 0.464286 0.0
-1.61504 0.598581 0.0
-1.59683 0.64359 0.0
-1.57899 0.274107 0.0
-1.56176 0.322381 0.0
-1.54812 0 0.0
-1.53378 0.0357143 0.0
-1.54593 0.147619 0.0
-1.53385 0.0732143 0.0
-1.53393 0.110714 0.0
-1.58522 0.704286 0.0
-1.58709 0.745 0.0
-1.58896 0.785714 0.0
-1.60695 0.830357 0.0
-1.60707 0.892857 0.0
-1.59993 1 0.0
-1.58454 0.965385 0.0
-1.57135 0.928571 0.0
-1.55209 0.241071 0.0
-1.5291 0.198214 0.0
-1.56936 0.570918 0.0
-1.54369 0.517857 0.0
-1.5464 0.380952 0.0
-1.54564 0.427721 0.0
-1.54488 0.47449 0.0
-1.55026 0.606122 0.0
-1.54222 0.677143 0.0
-1.52943 0.282857 0.0
-1.52143 0.33619 0.0
-1.49792 0 0.0
-1.49802 0.05 0.0
-1.49822 0.15 0.0
-1.49312 0.1 0.0
-1.5423 0.717143 0.0
-1.54419 0.767857 0.0
-1.54727 0.819048 0.0
-1.57122 0.861905 0.0
-1.53553 0.914286 0.0
-1.54992 1 0.0
-1.53563 0.964286 0.0
-1.49842 0.25 0.0
-1.48831 0.2 0.0
-1.5214 0.558929 0.0
-1.49891 0.5 0.0
-1.49871 0.4 0.0
-1.47631 0.45 0.0
-1.49911 0.6 0.0
-1.49921 0.65 0.0
-1.49931 0.7 0.0
-1.48111 0.35 0.0
-1.48351 0.3 0.0
-1.44771 0 0.0
-1.44782 0.05 0.0
-1.44804 0.15 0.0
-1.44793 0.1 0.0
-1.49941 0.75 0.0
-1.49951 0.8 0.0
-1.49981 0.95 0.0
-1.49961 0.85 0.0
-1.49971 0.9 0.0
-1.49991 1 0.0
-1.44826 0.25 0.0
-1.43815 0.2 0.0
-1.47151 0.55 0.0
-1.44881 0.5 0.0
-1.44859 0.4 0.0
-1.42619 0.45 0.0
-1.44913 0.65 0.0
-1.44902 0.6 0.0
-1.44935 0.75 0.0
-1.44924 0.7 0.0
-1.43972 0.35 0.0
-1.43336 0.3 0.0
-1.3975 0 0.0
-1.39762 0.05 0.0
-1.39786 0.15 0.0
-1.39274 0.1 0.0
-1.44957 0.85 0.0
-1.44946 0.8 0.0
-1.4523 0.95 0.0
-1.44968 0.9 0.0
-1.4499 1 0.0
-1.3981 0.25 0.0
-1.38798 0.2 0.0
-1.42141 0.55 0.0
-1.3987 0.5 0.0
-1.39834 0.35 0.0
-1.37845 0.4 0.0
-1.37607 0.45 0.0
-1.40784 0.65 0.0
-1.39894 0.6 0.0
-1.41185 0.75 0.0
-1.39918 0.7 0.0
-1.38322 0.3 0.0
-1.34729 0 0.0
-1.34492 0.05 0.0
-1.34018 0.15 0.0
-1.34255 0.1 0.0
-1.40707 0.85 0.0
-1.39941 0.8 0.0
-1.39977 0.95 0.0
-1.39965 0.9 0.0
-1.39989 1 0.0
-1.33781 0.2 0.0
-1.33544 0.25 0.0
-1.37131 0.55 0.0
-1.34859 0.5 0.0
-1.33833 0.4 0.0
-1.3307 0.35 0.0
-1.32595 0.45 0.0
-1.34885 0.6 0.0
-1.36655 0.65 0.0
-1.36179 0.75 0.0
-1.34911 0.7 0.0
-1.33307 0.3 0.0
-1.29708 0 0.0
-1.29722 0.05 0.0
-1.2975 0.15 0.0
-1.29236 0.1 0.0
-1.35703 0.85 0.0
-1.34937 0.8 0.0
-1.34988 1 0.0
-1.34962 0.9 0.0
-1.35226 0.95 0.0
-1.28528 0.25 0.0
-1.28764 0.2 0.0
-1.28931 0.35 0.0
-1.32121 0.55 0.0
-1.29848 0.5 0.0
-1.28709 0.45 0.0
-1.2982 0.4 0.0
-1.29876 0.6 0.0
-1.31647 0.65 0.0
-1.29918 0.75 0.0
-1.29904 0.7 0.0
-1.28292 0.3 0.0
-1.24687 0 0.0
-1.24702 0.05 0.0
-1.24717 0.1 0.0
-1.24732 0.15 0.0
-1.29946 0.85 0.0
-1.29932 0.8 0.0
-1.29987 1 0.0
-1.29974 0.95 0.0
-1.30462 0.9 0.0
-1.24762 0.25 0.0
-1.23747 0.2 0.0
-1.24792 0.35 0.0
-1.22807 0.4 0.0
-1.27111 0.55 0.0
-1.24837 0.5 0.0
-1.24822 0.45 0.0
-1.24867 0.6 0.0
-1.26639 0.65 0.0
-1.26167 0.75 0.0
-1.24897 0.7 0.0
-1.23277 0.3 0.0
-1.19667 0 0.0
-1.19683 0.05 0.0
-1.18964 0.15 0.0
-1.19198 0.1 0.0
-1.25695 0.85 0.0
-1.24927 0.8 0.0
-1.25223 0.95 0.0
-1.24987 1 0.0
-1.24957 0.9 0.0
-1.1873 0.2 0.0
-1.18496 0.25 0.0
-1.18028 0.35 0.0
-1.17794 0.4 0.0
-1.1981 0.45 0.0
-1.19842 0.55 0.0
-1.19826 0.5 0.0
-1.19858 0.6 0.0
-1.19874 0.65 0.0
-1.19906 0.75 0.0
-1.1989 0.7 0.0
-1.18262 0.3 0.0
-1.14646 0 0.0
-1.14663 0.05 0.0
-1.1418 0.1 0.0
-1.13713 0.2 0.0
-1.14697 0.15 0.0
-1.20691 0.85 0.0
-1.20926 0.8 0.0
-1.20221 0.95 0.0
-1.19986 1 0.0
-1.20456 0.9 0.0
-1.13997 0.3 0.0
-1.14731 0.25 0.0
-1.13781 0.4 0.0
-1.13014 0.35 0.0
-1.12548 0.45 0.0
-1.14815 0.5 0.0
-1.15962 0.55 0.0
-1.14849 0.6 0.0
-1.15745 0.65 0.0
-1.16155 0.75 0.0
-1.14917 0.8 0.0
-1.14883 0.7 0.0
-1.09625 0 0.0
-1.09661 0.1 0.0
-1.09393 0.05 0.0
-1.09697 0.2 0.0
-1.08929 0.15 0.0
-1.15687 0.85 0.0
-1.14985 1 0.0
-1.15219 0.95 0.0
-1.14951 0.9 0.0
-1.09733 0.3 0.0
-1.08465 0.25 0.0
-1.09769 0.4 0.0
-1.08 0.35 0.0
-1.08661 0.45 0.0
-1.09804 0.5 0.0
-1.12082 0.55 0.0
-1.10916 0.8 0.0
-1.10629 0.7 0.0
-1.0984 0.6 0.0
-1.11616 0.65 0.0
-1.11149 0.75 0.0
-1.04604 0 0.0
-1.04623 0.05 0.0
-1.04642 0.1 0.0
-1.0468 0.2 0.0
-1.03911 0.15 0.0
-1.09948 0.9 0.0
-1.0993 0.85 0.0
-1.09984 1 0.0
-1.09966 0.95 0.0
-1.04718 0.3 0.0
-1.03449 0.25 0.0
-1.04756 0.4 0.0
-1.02986 0.35 0.0
-1.04775 0.45 0.0
-1.04794 0.5 0.0
-1.04813 0.55 0.0
-1.05911 0.8 0.0
-1.04831 0.6 0.0
-1.06376 0.7 0.0
-1.0485 0.65 0.0
-1.04888 0.75 0.0
-0.995833 0 0.0
-0.991231 0.1 0.0
-0.996033 0.05 0.0
-0.986629 0.2 0.0
-0.98893 0.15 0.0
-1.05447 0.9 0.0
-1.04926 0.85 0.0
-1.04983 1 0.0
-1.04964 0.95 0.0
-0.984328 0.25 0.0
-0.99703 0.3 0.0
-0.997429 0.4 0.0
-0.997628 0.45 0.0
-0.979726 0.35 0.0
-0.997827 0.5 0.0
-0.998027 0.55 0.0
-0.998226 0.6 0.0
-0.961416 0.475 0.0
-1.00907 0.8 0.0
-0.998426 0.65 0.0
-0.998625 0.7 0.0
-1.01138 0.75 0.0
-0.945625 0 0.0
-0.946044 0.1 0.0
-0.943334 0.05 0.0
-0.946463 0.2 0.0
-0.938752 0.15 0.0
-1.00444 0.9 0.0
-1.00675 0.85 0.0
-0.999821 1 0.0
-1.00213 0.95 0.0
-0.93417 0.25 0.0
-0.946881 0.3 0.0
-0.9473 0.4 0.0
-0.929588 0.35 0.0
-0.925005 0.45 0.0
-0.960371 0.525 0.0
-0.959325 0.575 0.0
-0.958279 0.625 0.0
-0.922714 0.5 0.0
-0.959017 0.8 0.0
-0.957233 0.675 0.0
-0.952999 0.7125 0.0
-0.948766 0.75 0.0
-0.895417 0 0.0
-0.895855 0.1 0.0
-0.893136 0.05 0.0
-0.896294 0.2 0.0
-0.888573 0.15 0.0
-0.949184 0.85 0.0
-0.954415 0.9 0.0
-0.949812 1 0.0
-0.949603 0.95 0.0
-0.884011 0.25 0.0
-0.896733 0.3 0.0
-0.874887 0.45 0.0
-0.879449 0.35 0.0
-0.897171 0.4 0.0
-0.920423 0.55 0.0
-0.918132 0.6 0.0
-0.915841 0.65 0.0
-0.872606 0.5 0.0
-0.908968 0.8 0.0
-0.91355 0.7 0.0
-0.898707 0.75 0.0
-0.845208 0 0.0
-0.845438 0.05 0.0
-0.845667 0.1 0.0
-0.845896 0.15 0.0
-0.833853 0.25 0.0
-0.846126 0.2 0.0
-0.899146 0.85 0.0
-0.904386 0.9 0.0
-0.899584 0.95 0.0
-0.899804 1 0.0
-0.838062 0.35 0.0
[...]
POINT_DATA 10839
VECTORS Velocity float
0.21 0 0.0
0.24 0 0.0
0.2275 0 0.0
0.2475 0 0.0
0.25 0 0.0
0.2475 0 0.0
0 0 0.0
0.0475 0 0.0
0.1275 0 0.0
0.09 0 0.0
0.09 0 0.0
0.1275 0 0.0
0.1875 0 0.0
0.16 0 0.0
0.195557 -2.41693e-05 0.0
0.242841 -3.28775e-05 0.0
0.215776 -2.87298e-05 0.0
0.231406 -3.23581e-05 0.0
0.248725 -3.49914e-05 0.0
0.24 0 0.0
0.24284 -3.28004e-05 0.0
0.24852 -3.3699e-05 0.0
0 0 0.0
0.0622239 -4.271e-06 0.0
0.0322271 -2.82441e-06 0.0
0.16 0 0.0
0.1875 0 0.0
0.21 0 0.0
0.2275 0 0.0
0.193592 -2.71227e-05 0.0
0.138887 -1.51302e-05 0.0
0 0 0.0
0.0475 0 0.0
0.0998415 -1.05502e-05 0.0
0.0622205 -4.32003e-06 0.0
0.0998462 -1.10195e-05 0.0
0.138891 -1.52617e-05 0.0
0.17438 -3.80891e-05 0.0
0.201605 -5.20706e-05 0.0
0.235787 -6.3463e-05 0.0
0.244085 -6.63771e-05 0.0
0.223602 -8.50091e-05 0.0
0.249751 -6.93263e-05 0.0
0.249044 -7.72208e-05 0.0
0.231404 -3.28743e-05 0.0
0.244081 -6.55877e-05 0.0
0 0 0.0
0.0361083 -5.43819e-06 0.0
0.0736128 -1.51597e-05 0.0
0.0622494 -1.65871e-05 0.0
0.17437 -3.75314e-05 0.0
0.220162 -5.20118e-05 0.0
0.201594 -5.21385e-05 0.0
0.115548 -2.26047e-05 0.0
0.146676 -3.49177e-05 0.0
0 0 0.0
0.0360873 -3.67661e-06 0.0
0.069366 -1.18802e-05 0.0
0.0899834 -2.3481e-05 0.0
0.109391 -3.16952e-05 0.0
0.146692 -3.42388e-05 0.0
0.178902 -6.37303e-05 0.0
0.206293 -8.31823e-05 0.0
0.214501 -0.000111909 0.0
0.238527 -9.93079e-05 0.0
0.24735 -0.000103372 0.0
0.229607 -0.00012626 0.0
0.226323 -8.92798e-05 0.0
0.249983 -0.000103871 0.0
0.246426 -0.000101067 0.0
0.23668 -9.51955e-05 0.0
0 0 0.0
0.0322509 -6.13446e-06 0.0
0.0956967 -3.59427e-05 0.0
0.0694296 -2.70796e-05 0.0
0.178876 -6.27561e-05 0.0
0.206269 -8.37914e-05 0.0
0.127476 -4.84718e-05 0.0
0.165873 -7.93141e-05 0.0
0.152325 -5.69283e-05 0.0
0 0 0.0
0.0360794 -5.26978e-06 0.0
0.0621955 -1.64219e-05 0.0
0.0956298 -3.66432e-05 0.0
0.127525 -4.89321e-05 0.0
0.156661 -7.09376e-05 0.0
0.115601 -5.60979e-05 0.0
0.193626 -0.000116613 0.0
0.218141 -0.000147365 0.0
0.24094 -0.00013447 0.0
0.247737 -0.000139416 0.0
0.25 -0.000140919 0.0
0.234398 -0.000170442 0.0
0.229577 -0.000124486 0.0
0.247727 -0.000139094 0.0
0.24092 -0.000134205 0.0
0 0 0.0
0.0344877 -8.47571e-06 0.0
0.103121 -5.50646e-05 0.0
0.0623033 -2.74077e-05 0.0
0.189727 -9.91995e-05 0.0
0.212989 -0.000138249 0.0
0.170534 -0.000107335 0.0
0.14433 -7.97821e-05 0.0
0 0 0.0
0.0398977 -9.0431e-06 0.0
0.0997862 -5.01328e-05 0.0
0.0693209 -2.66602e-05 0.0
0.170624 -0.000107474 0.0
0.144421 -8.15194e-05 0.0
0.124377 -8.25577e-05 0.0
0.183649 -0.000135645 0.0
0.204131 -0.000162247 0.0
0.222038 -0.000190855 0.0
0.249109 -0.000184685 0.0
0.244026 -0.00017982 0.0
0.24912 -0.000184711 0.0
0.23855 -0.000216602 0.0
0.234353 -0.000169383 0.0
0.244883 -0.000194581 0.0
0 0 0.0
0.0322924 -8.96545e-06 0.0
0.0940741 -5.78205e-05 0.0
0.0652174 -3.46074e-05 0.0
0.196696 -0.000148201 0.0
0.217872 -0.000181856 0.0
0.177438 -0.000150299 0.0
0.14869 -0.00010513 0.0
0.120329 -7.37491e-05 0.0
0 0 0.0
0.0343903 -8.57366e-06 0.0
0.071644 -3.47905e-05 0.0
0.152424 -0.000117824 0.0
0.127614 -0.000102327 0.0
0.187578 -0.000167912 0.0
0.21195 -0.000208927 0.0
0.248605 -0.00022887 0.0
0.225685 -0.000236552 0.0
0.249783 -0.000230551 0.0
0.246474 -0.000226709 0.0
0.242064 -0.000264933 0.0
0.23849 -0.000215905 0.0
0 0 0.0
0.0338747 -1.12202e-05 0.0
0.0999925 -7.7045e-05 0.0
0.0695448 -4.60099e-05 0.0
0.206261 -0.000195541 0.0
0.222405 -0.000227753 0.0
0.189976 -0.000202964 0.0
0.168255 -0.000164128 0.0
0.143004 -0.0001261 0.0
0.124194 -9.32491e-05 0.0
0.0970842 -6.27663e-05 0.0
0 0 0.0
0.0360203 -1.0901e-05 0.0
0.0673148 -3.72491e-05 0.0
0.130333 -0.000123456 0.0
0.168481 -0.000164999 0.0
0.199472 -0.000215043 0.0
0.218378 -0.000252167 0.0
0.241992 -0.000265439 0.0
0.25 -0.000277103 0.0
0.247989 -0.000273848 0.0
0.22908 -0.000284328 0.0
0.244937 -0.000314989 0.0
0.24874 -0.000290672 0.0
0.234446 -0.000271788 0.0
0 0 0.0
0.0362329 -1.4448e-05 0.0
0.122657 -0.000126332 0.0
0.0712285 -5.43621e-05 0.0
0.208351 -0.000238679 0.0
0.225127 -0.000283731 0.0
0.198049 -0.000247546 0.0
0.177727 -0.000205215 0.0
0.146527 -0.000151598 0.0
0.119133 -0.000106154 0.0
0.0970516 -7.11195e-05 0.0
0 0 0.0
0.0349382 -1.21984e-05 0.0
0.0672778 -4.19017e-05 0.0
0.1523 -0.000172238 0.0
0.178016 -0.000210257 0.0
0.210115 -0.000265764 0.0
0.244858 -0.000314703 0.0
0.24942 -0.000323338 0.0
0.232224 -0.000333969 0.0
0.244196 -0.000357951 0.0
0.249988 -0.000381687 0.0
0.249132 -0.000339671 0.0
0.235913 -0.000324873 0.0
0.212961 -0.000323985 0.0
0 0 0.0
0.0371616 -1.70083e-05 0.0
0.141108 -0.000175583 0.0
0.0999555 -0.000106389 0.0
0.0665986 -5.29715e-05 0.0
0.21363 -0.00028982 0.0
0.186609 -0.000252337 0.0
0.165086 -0.00020556 0.0
0.122242 -0.000127083 0.0
0.0928668 -7.79218e-05 0.0
0 0 0.0
0.0349085 -1.36123e-05 0.0
0.0642269 -4.44815e-05 0.0
0.165595 -0.000219867 0.0
0.186966 -0.000258315 0.0
0.158121 -0.000229857 0.0
0.247091 -0.000367234 0.0
0.248691 -0.000421509 0.0
0.23105 -0.00037465 0.0
0.240524 -0.000399658 0.0
0.248757 -0.000421384 0.0
0.240204 -0.000373262 0.0
0.229258 -0.000366449 0.0
0.19918 -0.000317081 0.0
0.218632 -0.000378637 0.0
0 0 0.0
0.0346493 -1.66895e-05 0.0
0.126167 -0.00017055 0.0
0.0681767 -5.9816e-05 0.0
0.0988167 -0.00011578 0.0
0.208085 -0.00033074 0.0
0.189762 -0.000288582 0.0
0.168128 -0.000239778 0.0
0.140622 -0.000174141 0.0
0.0954104 -9.25687e-05 0.0
0 0 0.0
0.0332524 -1.39254e-05 0.0
0.0660567 -5.29217e-05 0.0
0.18322 -0.000299509 0.0
0.159259 -0.000257041 0.0
0.244899 -0.000434193 0.0
0.24966 -0.000476419 0.0
0.235959 -0.000437832 0.0
0.244857 -0.000462526 0.0
0.249377 -0.000475593 0.0
0.238622 -0.00043926 0.0
0.218423 -0.000396926 0.0
0.203101 -0.000369526 0.0
0.223368 -0.000432551 0.0
0 0 0.0
0.0478053 -3.32335e-05 0.0
0.127917 -0.000194275 0.0
0.0904205 -0.000108759 0.0
0.202611 -0.000355002 0.0
0.17797 -0.000292318 0.0
0.147891 -0.000219895 0.0
0.118722 -0.000144668 0.0
0.0780289 -7.7832e-05 0.0
0 0 0.0
0.0342307 -1.6399e-05 0.0
0.187828 -0.000354286 0.0
0.160397 -0.000285837 0.0
0.246452 -0.000495399 0.0
0.249999 -0.000533813 0.0
0.240137 -0.000504897 0.0
0.247575 -0.000555908 0.0
0.239861 -0.000503057 0.0
0.227295 -0.00046567 0.0
0.209733 -0.000414453 0.0
0.22772 -0.000490579 0.0
0.210286 -0.000433527 0.0
0 0 0.0
0.0478683 -3.70658e-05 0.0
0.12801 -0.000216688 0.0
0.0905015 -0.000119496 0.0
0.187175 -0.000351195 0.0
0.159623 -0.000275848 0.0
0.0471982 -3.26722e-05 0.0
0.127088 -0.000191486 0.0
0.0895923 -0.000106653 0.0
0 0 0.0
0.187903 -0.000397976 0.0
0.160485 -0.000319781 0.0
0.24742 -0.000561175 0.0
0.249998 -0.000600754 0.0
0.240169 -0.00056893 0.0
0.247591 -0.000624595 0.0
0.227249 -0.000523308 0.0
0.239829 -0.00056549 0.0
0.187101 -0.000393873 0.0
0.209672 -0.000465437 0.0
0.22776 -0.000538393 0.0
0.21035 -0.000487304 0.0
0 0 0.0
0.0479374 -4.05037e-05 0.0
0.128115 -0.000240699 0.0
0.0906112 -0.000133734 0.0
0.126995 -0.000214558 0.0
0.159538 -0.000309189 0.0
0.0471391 -3.62856e-05 0.0
0.0895039 -0.000118607 0.0
0 0 0.0
0.187988 -0.000444533 0.0
0.160586 -0.000356437 0.0
0.247402 -0.000628957 0.0
0.249996 -0.000672448 0.0
0.227803 -0.00059072 0.0
0.240218 -0.000665437 0.0
0.247608 -0.000698984 0.0
0.227204 -0.000571968 0.0
0.239792 -0.000632398 0.0
0.187039 -0.000426643 0.0
0.209602 -0.000519773 0.0
0.210422 -0.000545104 0.0
0 0 0.0
0.0480185 -4.47841e-05 0.0
0.12825 -0.000270283 0.0
0.0907229 -0.000147169 0.0
0.126909 -0.000234449 0.0
0.159442 -0.00034411 0.0
0.0470673 -4.04627e-05 0.0
0.0894059 -0.000131234 0.0
0 0 0.0
0.160698 -0.000395468 0.0
0.188109 -0.000507358 0.0
0.247382 -0.000701599 0.0
0.249995 -0.000749566 0.0
0.240251 -0.000727314 0.0
0.227885 -0.000684309 0.0
0.247628 -0.000778193 0.0
0.239751 -0.000703462 0.0
0.227157 -0.000625039 0.0
0.186948 -0.000473908 0.0
0.209525 -0.000577267 0.0
0.210503 -0.000608329 0.0
0 0 0.0
0.0480997 -4.90486e-05 0.0
0.128363 -0.000294254 0.0
0.090846 -0.000161459 0.0
0.126797 -0.000259923 0.0
0.159336 -0.000382021 0.0
0 0 0.0
0.0892964 -0.000145884 0.0
0.0469944 -4.47541e-05 0.0
0.188219 -0.000565717 0.0
0.160824 -0.000438657 0.0
0.227942 -0.000747783 0.0
0.247358 -0.000780366 0.0
0.249992 -0.000833387 0.0
0.247644 -0.000845495 0.0
0.240286 -0.000792513 0.0
0.239705 -0.000780219 0.0
0.227093 -0.000693451 0.0
0.186821 -0.000537416 0.0
0.209439 -0.000639846 0.0
0.210594 -0.000676721 0.0
0 0 0.0
0.0481908 -5.33511e-05 0.0
0.0909681 -0.000174701 0.0
0.128508 -0.000323884 0.0
0.126652 -0.000292311 0.0
0.159218 -0.000423006 0.0
0 0 0.0
0.0469065 -4.98242e-05 0.0
0.089189 -0.000159882 0.0
0.188312 -0.000611811 0.0
0.160966 -0.000486217 0.0
0.228002 -0.000816828 0.0
0.240353 -0.000919324 0.0
0.247331 -0.000865715 0.0
0.249988 -0.000923938 0.0
0.247661 -0.000916806 0.0
0.239652 -0.00086281 0.0
0.227021 -0.000767097 0.0
0.186736 -0.000579264 0.0
0.209344 -0.000705774 0.0
0.210696 -0.00075325 0.0
0 0 0.0
0.0482911 -5.7671e-05 0.0
0.128698 -0.00036272 0.0
0.0911328 -0.00019324 0.0
0.126534 -0.000319141 0.0
0.159088 -0.000467415 0.0
0.0468175 -5.49912e-05 0.0
0 0 0.0
0.0890439 -0.000179575 0.0
0.161125 -0.000539149 0.0
0.188482 -0.000697292 0.0
0.228115 -0.000942987 0.0
0.240407 -0.00102388 0.0
0.247682 -0.00101838 0.0
0.247284 -0.000999479 0.0
0.249981 -0.00102478 0.0
0.239592 -0.000953783 0.0
0.226911 -0.00087291 0.0
0.186582 -0.000652631 0.0
0.209238 -0.000777498 0.0
0.210809 -0.000838445 0.0
0 0 0.0
0.0483987 -6.20206e-05 0.0
0.0912986 -0.000210013 0.0
0.161303 -0.000596975 0.0
0.128855 -0.000393556 0.0
0.126384 -0.000353478 0.0
0.158975 -0.000505529 0.0
0.0467123 -6.20898e-05 0.0
0 0 0.0
0.0889105 -0.000198309 0.0
0.210915 -0.000919613 0.0
0.188601 -0.000757758 0.0
0.240453 -0.00111409 0.0
0.228207 -0.00105422 0.0
0.247716 -0.0011811 0.0
0.249972 -0.00113344 0.0
0.247253 -0.00107895 0.0
0.239524 -0.00104947 0.0
0.226834 -0.000943157 0.0
0.186479 -0.000699959 0.0
0.158791 -0.000567273 0.0
0.209122 -0.000852087 0.0
0 0 0.0
0.0914655 -0.000228738 0.0
0.0485246 -6.76257e-05 0.0
0.161464 -0.000652681 0.0
0.129093 -0.000444573 0.0
0.126219 -0.000391348 0.0
0 0 0.0
0.0465946 -6.99122e-05 0.0
0.0887324 -0.000223658 0.0
0.211033 -0.00100894 0.0
0.188816 -0.000873149 0.0
0.240501 -0.00121258 0.0
0.228308 -0.00117856 0.0
0.24773 -0.0012835 0.0
0.249956 -0.0012541 0.0
0.247219 -0.001166 0.0
0.158658 -0.000608064 0.0
0.209014 -0.000918301 0.0
0.239445 -0.00115112 0.0
0.226749 -0.00101784 0.0
0.186333 -0.000766048 0.0
0 0 0.0
0.0486478 -7.30547e-05 0.0
0.091668 -0.000252745 0.0
0.161688 -0.000730837 0.0
0.129331 -0.000497416 0.0
0.0885524 -0.000248045 0.0
0.126012 -0.00043749 0.0
0 0 0.0
0.046457 -7.9081e-05 0.0
0.211184 -0.00113122 0.0
0.189016 -0.000982698 0.0
0.240563 -0.00135153 0.0
0.228418 -0.0013209 0.0
0.247746 -0.00139432 0.0
0.249937 -0.00138769 0.0
0.247138 -0.00133687 0.0
0.158482 -0.000662012 0.0
0.239356 -0.00126165 0.0
0.208896 -0.000984514 0.0
0.226595 -0.00114638 0.0
0.186133 -0.000852523 0.0
0 0 0.0
0.091923 -0.000287125 0.0
0.0487897 -8.14763e-05 0.0
0.161993 -0.000846351 0.0
0.129599 -0.000562898 0.0
0.0883773 -0.000270898 0.0
0.125817 -0.000479963 0.0
0 0 0.0
0.0463087 -8.90511e-05 0.0
0.189237 -0.00111361 0.0
0.211351 -0.00127503 0.0
0.240627 -0.00151232 0.0
0.247761 -0.00154738 0.0
0.228535 -0.001484 0.0
0.249905 -0.00153165 0.0
0.247068 -0.00147247 0.0
0.239252 -0.00137694 0.0
0.249442 -0.0016671 0.0
0.158291 -0.000714474 0.0
0.22646 -0.00124622 0.0
0.208695 -0.00109086 0.0
0.186001 -0.000902138 0.0
0 0 0.0
0.0921643 -0.000324675 0.0
0.0489623 -9.26035e-05 0.0
0.162227 -0.000942981 0.0
0.129905 -0.000645273 0.0
0.088168 -0.000295565 0.0
0.125639 -0.000513965 0.0
0 0 0.0
0.0461551 -9.82771e-05 0.0
0.189486 -0.00126889 0.0
0.211534 -0.00144425 0.0
0.240684 -0.00169037 0.0
0.228659 -0.00167623 0.0
0.247763 -0.00180963 0.0
0.249059 -0.00162196 0.0
0.243698 -0.00153198 0.0
0.233367 -0.00140401 0.0
0.249832 -0.00178195 0.0
0.158089 -0.000761773 0.0
0.218065 -0.00124725 0.0
0.203314 -0.00111757 0.0
0.185766 -0.000979122 0.0
0 0 0.0
0.0924688 -0.000378886 0.0
0.0491487 -0.000106218 0.0
0.162549 -0.00108847 0.0
0.130257 -0.000750975 0.0
0.125386 -0.000553417 0.0
0.0879442 -0.000317575 0.0
0 0 0.0
0.0459715 -0.000106481 0.0
0.189762 -0.00145702 0.0
0.211733 -0.00164406 0.0
0.247747 -0.00201434 0.0
0.228786 -0.00189689 0.0
0.240745 -0.00189935 0.0
0.246922 -0.00170225 0.0
0.239041 -0.00157628 0.0
0.226194 -0.00141452 0.0
0.249754 -0.00196953 0.0
0.15787 -0.000801283 0.0
0.208384 -0.00122434 0.0
0.185553 -0.0010339 0.0
0 0 0.0
0.0493606 -0.000124373 0.0
0.0928245 -0.000450064 0.0
0.130599 -0.000862771 0.0
0.190066 -0.00168088 0.0
0.162915 -0.00126758 0.0
0.125152 -0.000577764 0.0
0.0877089 -0.000334422 0.0
0.0457816 -0.000114156 0.0
0 0 0.0
0.228893 -0.00210795 0.0
0.211947 -0.001883 0.0
0.247724 -0.00219514 0.0
0.24079 -0.0021405 0.0
0.225997 -0.00151447 0.0
0.246793 -0.0018632 0.0
0.238871 -0.00170813 0.0
0.249654 -0.00217691 0.0
0.185324 -0.00107404 0.0
0.157591 -0.000826891 0.0
0.208099 -0.00131517 0.0
0 0 0.0
0.0496254 -0.000152541 0.0
0.0932967 -0.000548331 0.0
0.131059 -0.0010251 0.0
0.190313 -0.00188438 0.0
0.163414 -0.00154316 0.0
0.124914 -0.000587712 0.0
0.0874475 -0.000341849 0.0
0.045588 -0.00011791 0.0
0 0 0.0
0.124671 -0.000580234 0.0
0.228997 -0.00233716 0.0
0.212245 -0.00226284 0.0
0.240834 -0.00253883 0.0
0.247685 -0.0023895 0.0
0.225678 -0.00164547 0.0
0.238671 -0.00184302 0.0
0.246634 -0.00203908 0.0
0.249512 -0.00240809 0.0
0.185068 -0.00109893 0.0
0.157336 -0.000832111 0.0
0.20784 -0.00137577 0.0
0 0 0.0
0.0499455 -0.000184034 0.0
0.0938135 -0.000663925 0.0
0.131592 -0.00122589 0.0
0.190673 -0.00219068 0.0
0.163893 -0.00182421 0.0
0.0453866 -0.000121109 0.0
0.087206 -0.000340892 0.0
0 0 0.0
0.124464 -0.000555648 0.0
0.229118 -0.00267094 0.0
0.212486 -0.00261123 0.0
0.240837 -0.00286895 0.0
0.247602 -0.00267649 0.0
0.225437 -0.00172651 0.0
0.238428 -0.00198382 0.0
0.249332 -0.00266437 0.0
0.246332 -0.00231893 0.0
0.184852 -0.00110305 0.0
0.157067 -0.000812993 0.0
0.207543 -0.00142003 0.0
0 0 0.0
0.0503347 -0.00022593 0.0
0.0944327 -0.000802971 0.0
0.132313 -0.00150606 0.0
0.191161 -0.00265567 0.0
0.212735 -0.00301936 0.0
0.164429 -0.00216029 0.0
0.0452045 -0.000117773 0.0
0.0869787 -0.000326891 0.0
0 0 0.0
0.124226 -0.000510005 0.0
0.229263 -0.00319072 0.0
0.24082 -0.00317186 0.0
0.247483 -0.00299825 0.0
0.249157 -0.00287918 0.0
0.225167 -0.00179738 0.0
0.238124 -0.00213713 0.0
0.246051 -0.00253112 0.0
0.156782 -0.000768847 0.0
0.184536 -0.0010933 0.0
0.207194 -0.00145231 0.0
0 0 0.0
0.0508373 -0.000278069 0.0
0.0951771 -0.000973699 0.0
0.133057 -0.00180253 0.0
0.19148 -0.00298712 0.0
0.212982 -0.00347926 0.0
0.165037 -0.00255209 0.0
0.045023 -0.00011253 0.0
0.0867734 -0.000298951 0.0
0 0 0.0
0.156541 -0.000711282 0.0
0.0866039 -0.000254736 0.0
0.123967 -0.000432265 0.0
0.229345 -0.00366525 0.0
0.240774 -0.00349387 0.0
0.24722 -0.00353558 0.0
0.248954 -0.00310473 0.0
0.245796 -0.00271413 0.0
0.224781 -0.00188213 0.0
0.237605 -0.00235848 0.0
0.184084 -0.00104795 0.0
0.206853 -0.001474 0.0
0.229403 -0.00408381 0.0
0 0 0.0
0.0514165 -0.000336577 0.0
0.13393 -0.00214732 0.0
0.0960589 -0.00117328 0.0
0.213238 -0.00401909 0.0
0.192055 -0.00361556 0.0
0.16572 -0.00300326 0.0
0.0448589 -9.762e-05 0.0
0 0 0.0
0.183768 -0.00100997 0.0
0.156224 -0.000625274 0.0
0.123765 -0.000350151 0.0
0.0447093 -8.81843e-05 0.0
0.0864688 -0.000203298 0.0
0.240687 -0.00395542 0.0
0.247022 -0.00386651 0.0
0.248614 -0.00344075 0.0
0.24831 -0.00372336 0.0
0.245487 -0.00290375 0.0
0.224313 -0.00197136 0.0
0.23712 -0.00253171 0.0
0.20646 -0.00147615 0.0
0.229423 -0.00454962 0.0
0.0520763 -0.000401816 0.0
0 0 0.0
0.134773 -0.00247368 0.0
0.0970975 -0.00139479 0.0
0.213488 -0.00462312 0.0
0.192425 -0.00404833 0.0
0.166496 -0.00351879 0.0
0 0 0.0
0.183318 -0.00093644 0.0
0.155825 -0.000499056 0.0
0.123614 -0.000259887 0.0
0.0446124 -7.3187e-05 0.0
0.0863748 -0.000146126 0.0
0.240469 -0.00470608 0.0
0.246792 -0.00421742 0.0
0.247949 -0.00401904 0.0
0.24479 -0.00329442 0.0
0.223771 -0.00205369 0.0
0.236566 -0.00271389 0.0
0.205764 -0.00147805 0.0
0.229438 -0.00518664 0.0
0 0 0.0
0.0529029 -0.000479521 0.0
0.135909 -0.00290332 0.0
0.0981982 -0.00162246 0.0
0.167366 -0.00409013 0.0
0.213735 -0.00530791 0.0
0.193107 -0.00484797 0.0
0 0 0.0
0 0 0.0
0.182796 -0.000860064 0.0
0.155477 -0.000385234 0.0
0.123465 -0.00015601 0.0
0.0863366 -8.7168e-05 0.0
0.0445411 -5.66028e-05 0.0
0.240237 -0.00531626 0.0
0.24641 -0.00473054 0.0
0.236036 -0.00287658 0.0
0.247394 -0.00445758 0.0
0.244166 -0.00361189 0.0
0.223122 -0.00214673 0.0
0.205116 -0.00147371 0.0
0.240001 -0.00586361 0.0
0.229392 -0.00589816 0.0
0.053884 -0.000567393 0.0
0.0996049 -0.00189748 0.0
0.137216 -0.00338597 0.0
0.168153 -0.0046069 0.0
0.213987 -0.00606316 0.0
0.19354 -0.00540128 0.0
0 0 0.0
0 0 0.0
0.155188 -0.000288204 0.0
0.182079 -0.000753011 0.0
0.0863448 -3.07668e-05 0.0
0.123325 -3.82833e-05 0.0
0.0444867 -4.14695e-05 0.0
0.245715 -0.00555141 0.0
0.246712 -0.00495088 0.0
0.20439 -0.0014715 0.0
0.235438 -0.00304389 0.0
0.243621 -0.00388252 0.0
0.222088 -0.00228313 0.0
0.239719 -0.00643103 0.0
0.229288 -0.00698182 0.0
0.214226 -0.00690739 0.0
0.0550878 -0.000674328 0.0
0.101227 -0.00221412 0.0
0.138955 -0.00400039 0.0
0.169243 -0.00529615 0.0
0.194348 -0.00640326 0.0
0 0 0.0
0 0 0.0
0.154751 -0.000157417 0.0
0.181425 -0.000686252 0.0
0.0864184 2.83114e-05 0.0
0.123245 5.15191e-05 0.0
0.0444846 -2.49423e-05 0.0
0.242994 -0.00417639 0.0
0.245921 -0.00548396 0.0
0.245084 -0.00622196 0.0
0.203562 -0.00148047 0.0
0.234581 -0.00328518 0.0
0.221168 -0.00241898 0.0
0.180726 -0.000636336 0.0
0.239085 -0.00756677 0.0
0 0 0.0
0.229116 -0.00790384 0.0
0.195059 -0.007313 0.0
0.214458 -0.00783015 0.0
0.056366 -0.00078134 0.0
0.140445 -0.00451785 0.0
0.103298 -0.00261214 0.0
0.170722 -0.00624692 0.0
0 0 0.0
0 0 0.0
0 0 0.0
0 0 0.0
0 0 0.0
0.0445084 -1.34761e-05 0.0
0.123206 0.000120822 0.0
0.154375 -7.65927e-05 0.0
0.0864921 6.1288e-05 0.0
0.242069 -0.00457717 0.0
0.244987 -0.00608389 0.0
0.244362 -0.00695317 0.0
0.220321 -0.00252843 0.0
0.202625 -0.00151125 0.0
0.233151 -0.00367103 0.0
0.201755 -0.00155565 0.0
0.180151 -0.000614618 0.0
0.238497 -0.00849374 0.0
0.228902 -0.00889504 0.0
0 0 0.0
9.19102e-05 -3.32244e-05 0.0
0 0 0.0
-0.000425864 0.00275255 0.0
0.214695 -0.00886272 0.0
0.195647 -0.0080457 0.0
0.0579977 -0.000923273 0.0
0.142379 -0.0051784 0.0
0.105465 -0.00302503 0.0
0.172142 -0.00713904 0.0
0 0 0.0
0 0 0.0
0 0 0.0
-0.000329229 0.00159221 0.0
-5.43775e-05 -5.02951e-05 0.0
-3.21607e-05 1.15316e-05 0.0
0 0 0.0
0.0445288 -1.04052e-05 0.0
0.123179 0.000160417 0.0
0.153991 -2.93717e-05 0.0
0.0866224 8.18114e-05 0.0
0.241004 -0.00503634 0.0
0.24391 -0.00674265 0.0
0.243501 -0.00775316 0.0
0.219384 -0.00267199 0.0
0.2322 -0.00393955 0.0
0.20081 -0.00161841 0.0
0.179147 -0.000632267 0.0
0.23782 -0.00949602 0.0
0.231377 -0.00983033 0.0
0.222342 -0.00989368 0.0
0 0 0.0
7.08431e-05 3.3648e-05 0.0
0 0 0.0
0 0 0.0
-0.00148245 0.00596994 0.0
-0.00148589 0.00407197 0.0
0.210704 -0.0097019 0.0
0.196474 -0.00912437 0.0
0.107685 -0.0034538 0.0
0.0597183 -0.0010867 0.0
0.144555 -0.00593763 0.0
0.173698 -0.00813527 0.0
0 0 0.0
-0.000594902 0.000904806 0.0
-0.00105381 0.00223562 0.0
-0.000426901 0.000417188 0.0
-0.000447062 0.000372118 0.0
0 0 0.0
0.0445591 -1.20818e-05 0.0
0.123171 0.000169891 0.0
0.153604 -1.52466e-05 0.0
0.0867508 7.65929e-05 0.0
0.23978 -0.00554147 0.0
0.242679 -0.00746027 0.0
0.242499 -0.00862771 0.0
0.217653 -0.0029578 0.0
0.231154 -0.0042179 0.0
0.199599 -0.00174683 0.0
0.153231 -6.79623e-05 0.0
0.178286 -0.000707708 0.0
0.237185 -0.0103572 0.0
0.228386 -0.0107781 0.0
0.215054 -0.0108888 0.0
0 0 0.0
-0.000342617 0.000192854 0.0
0 0 0.0
0 0 0.0
0 0 0.0
0 0 0.0
-0.00274696 0.0043119 0.0
-0.000391035 0.004996 0.0
-0.00147363 0.00756929 0.0
-0.00347555 0.00985062 0.0
-0.00302884 0.00692125 0.0
0 0 0.0
-2.94617e-05 0.00689358 0.0
0.19758 -0.0106784 0.0
0.17507 -0.00905492 0.0
0 0 0.0
0.0619473 -0.00131562 0.0
0.110474 -0.00402564 0.0
0.147402 -0.00701695 0.0
0 0 0.0
0 0 0.0
-0.00174848 0.00220691 0.0
-0.00143231 0.00129108 0.0