# vtk DataFile Version 3.0
Mesh NS-CD Problem
ASCII
DATASET UNSTRUCTURED_GRID
POINTS 10839 float
-2 0.3 0.0
-2 0.4 0.0
-2 0.35 0.0
-2 0.45 0.0
-2 0.5 0.0
-2 0.55 0.0
-2 0 0.0
-2 0.05 0.0
-2 0.85 0.0
-2 0.9 0.0
-2 0.1 0.0
-2 0.15 0.0
-2 0.25 0.0
-2 0.2 0.0
-1.96653 0.266667 0.0
-1.96524 0.415385 0.0
-1.96485 0.315 0.0
-1.96348 0.363636 0.0
-1.96414 0.464286 0.0
-2 0.6 0.0
-1.96538 0.584615 0.0
-1.96538 0.538462 0.0
-1.94979 0 0.0
-1.96653 0.0666666 0.0
-1.93306 0.0333333 0.0
-2 0.8 0.0
-2 0.75 0.0
-2 0.7 0.0
-2 0.65 0.0
-1.96249 0.7375 0.0
-1.96666 0.833333 0.0
-2 1 0.0
-2 0.95 0.0
-1.96249 0.8875 0.0
-1.96666 0.933333 0.0
-1.96234 0.1125 0.0
-1.96653 0.166667 0.0
-1.93724 0.225 0.0
-1.92971 0.28 0.0
-1.93048 0.380769 0.0
-1.93048 0.423077 0.0
-1.89958 0.3375 0.0
-1.9292 0.484203 0.0
-1.92117 0.530907 0.0
-1.96363 0.636364 0.0
-1.93076 0.576923 0.0
-1.89958 0 0.0
-1.88703 0.0375 0.0
-1.90963 0.08 0.0
-1.86611 0.0666666 0.0
-1.93749 0.775 0.0
-1.93635 0.672727 0.0
-1.92999 0.72 0.0
-1.93332 0.866667 0.0
-1.92856 0.821429 0.0
-1.94999 1 0.0
-1.92499 0.9625 0.0
-1.92499 0.925 0.0
-1.89998 0.9 0.0
-1.89958 0.125 0.0
-1.92827 0.178571 0.0
-1.89958 0.233333 0.0
-1.89045 0.290909 0.0
-1.86096 0.311538 0.0
-1.89241 0.392857 0.0
-1.89334 0.448489 0.0
-1.85655 0.357143 0.0
-1.89614 0.653846 0.0
-1.89427 0.504121 0.0
-1.8952 0.559753 0.0
-1.89614 0.615385 0.0
-1.84937 0 0.0
-1.83264 0.0333333 0.0
-1.85655 0.107143 0.0
-1.81172 0.075 0.0
-1.89998 0.766667 0.0
-1.89089 0.709091 0.0
-1.87498 0.85 0.0
-1.85998 0.79 0.0
-1.88748 0.8125 0.0
-1.89998 1 0.0
-1.88748 0.9625 0.0
-1.86664 0.933333 0.0
-1.85712 0.892857 0.0
-1.87448 0.15 0.0
-1.86611 0.194444 0.0
-1.83264 0.133333 0.0
-1.83264 0.2625 0.0
-1.82068 0.321429 0.0
-1.85664 0.404762 0.0
-1.85674 0.452381 0.0
-1.85683 0.5 0.0
-1.81184 0.375 0.0
-1.85712 0.642857 0.0
-1.85693 0.547619 0.0
-1.85702 0.595238 0.0
-1.79917 0 0.0
-1.78482 0.0357143 0.0
-1.79917 0.116667 0.0
-1.76569 0.0666666 0.0
-1.85452 0.745455 0.0
-1.82689 0.692308 0.0
-1.81815 0.781818 0.0
-1.82497 0.825 0.0
-1.84997 1 0.0
-1.8333 0.958333 0.0
-1.81247 0.8875 0.0
-1.81247 0.925 0.0
-1.81742 0.218182 0.0
-1.82427 0.175 0.0
-1.77634 0.145455 0.0
-1.79144 0.242308 0.0
-1.78482 0.285714 0.0
-1.77469 0.332653 0.0
-1.81215 0.529762 0.0
-1.81194 0.422619 0.0
-1.81203 0.470238 0.0
-1.76714 0.392857 0.0
-1.81234 0.625 0.0
-1.79732 0.571429 0.0
-1.74896 0 0.0
-1.73222 0.0333333 0.0
-1.75398 0.105 0.0
-1.71883 0.07 0.0
-1.79227 0.730769 0.0
-1.78007 0.679121 0.0
-1.75765 0.769231 0.0
-1.78178 0.818182 0.0
-1.78996 0.86 0.0
-1.79996 1 0.0
-1.78568 0.964286 0.0
-1.76663 0.922222 0.0
-1.76569 0.1875 0.0
-1.73222 0.15 0.0
-1.74896 0.25 0.0
-1.73714 0.304762 0.0
-1.76743 0.537202 0.0
-1.72869 0.343878 0.0
-1.76732 0.485119 0.0
-1.76723 0.440476 0.0
-1.72243 0.410714 0.0
-1.76757 0.607143 0.0
-1.69875 0 0.0
-1.68369 0.035 0.0
-1.69875 0.1125 0.0
-1.66528 0.075 0.0
-1.74341 0.708974 0.0
-1.73324 0.665934 0.0
-1.70441 0.74478 0.0
-1.71423 0.785714 0.0
-1.72303 0.826923 0.0
-1.74541 0.854545 0.0
-1.74541 0.890909 0.0
-1.74996 1 0.0
-1.73745 0.9625 0.0
-1.71359 0.927273 0.0
-1.68716 0.153846 0.0
-1.7131 0.214286 0.0
-1.70725 0.275 0.0
-1.69712 0.321939 0.0
-1.72279 0.589286 0.0
-1.72261 0.5 0.0
-1.7227 0.544643 0.0
-1.6827 0.355102 0.0
-1.67773 0.428571 0.0
-1.70763 0.464286 0.0
-1.70369 0.62449 0.0
-1.64854 0 0.0
-1.63181 0.0375 0.0
-1.64137 0.142857 0.0
-1.61764 0.0769231 0.0
-1.69458 0.703846 0.0
-1.67471 0.657437 0.0
-1.66143 0.727637 0.0
-1.67125 0.768571 0.0
-1.67851 0.821429 0.0
-1.68841 0.861538 0.0
-1.70904 0.890909 0.0
-1.69995 1 0.0
-1.68176 0.963636 0.0
-1.67267 0.927273 0.0
-1.65427 0.187143 0.0
-1.66718 0.231429 0.0
-1.66554 0.3 0.0
-1.67802 0.571429 0.0
-1.67792 0.523809 0.0
-1.6367 0.366327 0.0
-1.63682 0.423469 0.0
-1.62568 0.502976 0.0
-1.6629 0.470238 0.0
-1.65254 0.618367 0.0
-1.6059 0.307143 0.0
-1.59833 0 0.0
-1.58288 0.0384615 0.0
-1.60563 0.169643 0.0
-1.58179 0.112271 0.0
-1.56964 0.0714286 0.0
-1.64574 0.690385 0.0
-1.62827 0.751429 0.0
-1.63371 0.791071 0.0
-1.64279 0.857143 0.0
-1.65378 0.896154 0.0
-1.64994 1 0.0
-1.6363 0.963636 0.0
-1.61916 0.930769 0.0
-1.61345 0.209107 0.0
-1.62126 0.248571 0.0
-1.56989 0.196429 0.0
-1.63324 0.553571 0.0
-1.58846 0.535714 0.0
-1.59408 0.361905 0.0
-1.59161 0.402211 0.0
-1.58832 0.464286 0.0
-1.61504 0.598581 0.0
-1.59683 0.64359 0.0
-1.57899 0.274107 0.0
-1.56176 0.322381 0.0
-1.54812 0 0.0
-1.53378 0.0357143 0.0
-1.54593 0.147619 0.0
-1.53385 0.0732143 0.0
-1.53393 0.110714 0.0
-1.58522 0.704286 0.0
-1.58709 0.745 0.0
-1.58896 0.785714 0.0
-1.60695 0.830357 0.0
-1.60707 0.892857 0.0
-1.59993 1 0.0
-1.58454 0.965385 0.0
-1.57135 0.928571 0.0
-1.55209 0.241071 0.0
-1.5291 0.198214 0.0
-1.56936 0.570918 0.0
-1.54369 0.517857 0.0
-1.5464 0.380952 0.0
-1.54564 0.427721 0.0
-1.54488 0.47449 0.0
-1.55026 0.606122 0.0
-1.54222 0.677143 0.0
-1.52943 0.282857 0.0
-1.52143 0.33619 0.0
-1.49792 0 0.0
-1.49802 0.05 0.0
-1.49822 0.15 0.0
-1.49312 0.1 0.0
-1.5423 0.717143 0.0
-1.54419 0.767857 0.0
-1.54727 0.819048 0.0
-1.57122 0.861905 0.0
-1.53553 0.914286 0.0
-1.54992 1 0.0
-1.53563 0.964286 0.0
-1.49842 0.25 0.0
-1.48831 0.2 0.0
-1.5214 0.558929 0.0
-1.49891 0.5 0.0
-1.49871 0.4 0.0
-1.47631 0.45 0.0
-1.49911 0.6 0.0
-1.49921 0.65 0.0
-1.49931 0.7 0.0
-1.48111 0.35 0.0
-1.48351 0.3 0.0
-1.44771 0 0.0
-1.44782 0.05 0.0
-1.44804 0.15 0.0
-1.44793 0.1 0.0
-1.49941 0.75 0.0
-1.49951 0.8 0.0
-1.49981 0.95 0.0
-1.49961 0.85 0.0
-1.49971 0.9 0.0
-1.49991 1 0.0
-1.44826 0.25 0.0
-1.43815 0.2 0.0
-1.47151 0.55 0.0
-1.44881 0.5 0.0
-1.44859 0.4 0.0
-1.42619 0.45 0.0
-1.44913 0.65 0.0
-1.44902 0.6 0.0
-1.44935 0.75 0.0
-1.44924 0.7 0.0
-1.43972 0.35 0.0
-1.43336 0.3 0.0
-1.3975 0 0.0
-1.39762 0.05 0.0
-1.39786 0.15 0.0
-1.39274 0.1 0.0
-1.44957 0.85 0.0
-1.44946 0.8 0.0
-1.4523 0.95 0.0
-1.44968 0.9 0.0
-1.4499 1 0.0
-1.3981 0.25 0.0
-1.38798 0.2 0.0
-1.42141 0.55 0.0
-1.3987 0.5 0.0
-1.39834 0.35 0.0
-1.37845 0.4 0.0
-1.37607 0.45 0.0
-1.40784 0.65 0.0
-1.39894 0.6 0.0
-1.41185 0.75 0.0
-1.39918 0.7 0.0
-1.38322 0.3 0.0
-1.34729 0 0.0
-1.34492 0.05 0.0
-1.34018 0.15 0.0
-1.34255 0.1 0.0
-1.40707 0.85 0.0
-1.39941 0.8 0.0
-1.39977 0.95 0.0
-1.39965 0.9 0.0
-1.39989 1 0.0
-1.33781 0.2 0.0
-1.33544 0.25 0.0
-1.37131 0.55 0.0
-1.34859 0.5 0.0
-1.33833 0.4 0.0
-1.3307 0.35 0.0
-1.32595 0.45 0.0
-1.34885 0.6 0.0
-1.36655 0.65 0.0
-1.36179 0.75 0.0
-1.34911 0.7 0.0
-1.33307 0.3 0.0
-1.29708 0 0.0
-1.29722 0.05 0.0
-1.2975 0.15 0.0
-1.29236 0.1 0.0
-1.35703 0.85 0.0
-1.34937 0.8 0.0
-1.34988 1 0.0
-1.34962 0.9 0.0
-1.35226 0.95 0.0
-1.28528 0.25 0.0
-1.28764 0.2 0.0
-1.28931 0.35 0.0
-1.32121 0.55 0.0
-1.29848 0.5 0.0
-1.28709 0.45 0.0
-1.2982 0.4 0.0
-1.29876 0.6 0.0
-1.31647 0.65 0.0
-1.29918 0.75 0.0
-1.29904 0.7 0.0
-1.28292 0.3 0.0
-1.24687 0 0.0
-1.24702 0.05 0.0
-1.24717 0.1 0.0
-1.24732 0.15 0.0
-1.29946 0.85 0.0
-1.29932 0.8 0.0
-1.29987 1 0.0
-1.29974 0.95 0.0
-1.30462 0.9 0.0
-1.24762 0.25 0.0
-1.23747 0.2 0.0
-1.24792 0.35 0.0
-1.22807 0.4 0.0
-1.27111 0.55 0.0
-1.24837 0.5 0.0
-1.24822 0.45 0.0
-1.24867 0.6 0.0
-1.26639 0.65 0.0
-1.26167 0.75 0.0
-1.24897 0.7 0.0
-1.23277 0.3 0.0
-1.19667 0 0.0
-1.19683 0.05 0.0
-1.18964 0.15 0.0
-1.19198 0.1 0.0
-1.25695 0.85 0.0
-1.24927 0.8 0.0
-1.25223 0.95 0.0
-1.24987 1 0.0
-1.24957 0.9 0.0
-1.1873 0.2 0.0
-1.18496 0.25 0.0
-1.18028 0.35 0.0
-1.17794 0.4 0.0
-1.1981 0.45 0.0
-1.19842 0.55 0.0
-1.19826 0.5 0.0
-1.19858 0.6 0.0
-1.19874 0.65 0.0
-1.19906 0.75 0.0
-1.1989 0.7 0.0
-1.18262 0.3 0.0
-1.14646 0 0.0
-1.14663 0.05 0.0
-1.1418 0.1 0.0
-1.13713 0.2 0.0
-1.14697 0.15 0.0
-1.20691 0.85 0.0
-1.20926 0.8 0.0
-1.20221 0.95 0.0
-1.19986 1 0.0
-1.20456 0.9 0.0
-1.13997 0.3 0.0
-1.14731 0.25 0.0
-1.13781 0.4 0.0
-1.13014 0.35 0.0
-1.12548 0.45 0.0
-1.14815 0.5 0.0
-1.15962 0.55 0.0
-1.14849 0.6 0.0
-1.15745 0.65 0.0
-1.16155 0.75 0.0
-1.14917 0.8 0.0
-1.14883 0.7 0.0
-1.09625 0 0.0
-1.09661 0.1 0.0
-1.09393 0.05 0.0
-1.09697 0.2 0.0
-1.08929 0.15 0.0
-1.15687 0.85 0.0
-1.14985 1 0.0
-1.15219 0.95 0.0
-1.14951 0.9 0.0
-1.09733 0.3 0.0
-1.08465 0.25 0.0
-1.09769 0.4 0.0
-1.08 0.35 0.0
-1.08661 0.45 0.0
-1.09804 0.5 0.0
-1.12082 0.55 0.0
-1.10916 0.8 0.0
-1.10629 0.7 0.0
-1.0984 0.6 0.0
-1.11616 0.65 0.0
-1.11149 0.75 0.0
-1.04604 0 0.0
-1.04623 0.05 0.0
-1.04642 0.1 0.0
-1.0468 0.2 0.0
-1.03911 0.15 0.0
-1.09948 0.9 0.0
-1.0993 0.85 0.0
-1.09984 1 0.0
-1.09966 0.95 0.0
-1.04718 0.3 0.0
-1.03449 0.25 0.0
-1.04756 0.4 0.0
-1.02986 0.35 0.0
-1.04775 0.45 0.0
-1.04794 0.5 0.0
-1.04813 0.55 0.0
-1.05911 0.8 0.0
-1.04831 0.6 0.0
-1.06376 0.7 0.0
-1.0485 0.65 0.0
-1.04888 0.75 0.0
-0.995833 0 0.0
-0.991231 0.1 0.0
-0.996033 0.05 0.0
-0.986629 0.2 0.0
-0.98893 0.15 0.0
-1.05447 0.9 0.0
-1.04926 0.85 0.0
-1.04983 1 0.0
-1.04964 0.95 0.0
-0.984328 0.25 0.0
-0.99703 0.3 0.0
-0.997429 0.4 0.0
-0.997628 0.45 0.0
-0.979726 0.35 0.0
-0.997827 0.5 0.0
-0.998027 0.55 0.0
-0.998226 0.6 0.0
-0.961416 0.475 0.0
-1.00907 0.8 0.0
-0.998426 0.65 0.0
-0.998625 0.7 0.0
-1.01138 0.75 0.0
-0.945625 0 0.0
-0.946044 0.1 0.0
-0.943334 0.05 0.0
-0.946463 0.2 0.0
-0.938752 0.15 0.0
-1.00444 0.9 0.0
-1.00675 0.85 0.0
-0.999821 1 0.0
-1.00213 0.95 0.0
-0.93417 0.25 0.0
-0.946881 0.3 0.0
-0.9473 0.4 0.0
-0.929588 0.35 0.0
-0.925005 0.45 0.0
-0.960371 0.525 0.0
-0.959325 0.575 0.0
-0.958279 0.625 0.0
-0.922714 0.5 0.0
-0.959017 0.8 0.0
-0.957233 0.675 0.0
-0.952999 0.7125 0.0
-0.948766 0.75 0.0
-0.895417 0 0.0
-0.895855 0.1 0.0
-0.893136 0.05 0.0
-0.896294 0.2 0.0
-0.888573 0.15 0.0
-0.949184 0.85 0.0
-0.954415 0.9 0.0
-0.949812 1 0.0
-0.949603 0.95 0.0
-0.884011 0.25 0.0
-0.896733 0.3 0.0
-0.874887 0.45 0.0
-0.879449 0.35 0.0
-0.897171 0.4 0.0
-0.920423 0.55 0.0
-0.918132 0.6 0.0
-0.915841 0.65 0.0
-0.872606 0.5 0.0
-0.908968 0.8 0.0
-0.91355 0.7 0.0
-0.898707 0.75 0.0
-0.845208 0 0.0
-0.845438 0.05 0.0
-0.845667 0.1 0.0
-0.845896 0.15 0.0
-0.833853 0.25 0.0
-0.846126 0.2 0.0
-0.899146 0.85 0.0
-0.904386 0.9 0.0
-0.899584 0.95 0.0
-0.899804 1 0.0
-0.838062 0.35 0.0
[...]
POINT_DATA 10839
VECTORS Velocity float
0.21 0 0.0
0.24 0 0.0
0.2275 0 0.0
0.2475 0 0.0
0.25 0 0.0
0.2475 0 0.0
0 0 0.0
0.0475 0 0.0
0.1275 0 0.0
0.09 0 0.0
0.09 0 0.0
0.1275 0 0.0
0.1875 0 0.0
0.16 0 0.0
0.195557 -2.38789e-05 0.0
0.242841 -3.26133e-05 0.0
0.215776 -2.84384e-05 0.0
0.231406 -3.20714e-05 0.0
0.248725 -3.47289e-05 0.0
0.24 0 0.0
0.24284 -3.25393e-05 0.0
0.24852 -3.3444e-05 0.0
0 0 0.0
0.0622239 -4.14011e-06 0.0
0.0322269 -2.73571e-06 0.0
0.16 0 0.0
0.1875 0 0.0
0.21 0 0.0
0.2275 0 0.0
0.193592 -2.68033e-05 0.0
0.138887 -1.4855e-05 0.0
0 0 0.0
0.0475 0 0.0
0.0998415 -1.03033e-05 0.0
0.0622206 -4.18639e-06 0.0
0.0998462 -1.07674e-05 0.0
0.138891 -1.49891e-05 0.0
0.17438 -3.76352e-05 0.0
0.201606 -5.1601e-05 0.0
0.235787 -6.30559e-05 0.0
0.244085 -6.59925e-05 0.0
0.223602 -8.4559e-05 0.0
0.249751 -6.89575e-05 0.0
0.249044 -7.68516e-05 0.0
0.231404 -3.2593e-05 0.0
0.244081 -6.52078e-05 0.0
0 0 0.0
0.0361079 -5.30245e-06 0.0
0.0736126 -1.48414e-05 0.0
0.0622489 -1.62744e-05 0.0
0.17437 -3.70767e-05 0.0
0.220162 -5.15938e-05 0.0
0.201594 -5.16751e-05 0.0
0.115549 -2.21893e-05 0.0
0.146676 -3.4428e-05 0.0
0 0 0.0
0.0360875 -3.56732e-06 0.0
0.0693662 -1.15928e-05 0.0
0.0899836 -2.30495e-05 0.0
0.109391 -3.12109e-05 0.0
0.146691 -3.3766e-05 0.0
0.178902 -6.31795e-05 0.0
0.206293 -8.26929e-05 0.0
0.214501 -0.000111545 0.0
0.238527 -9.89323e-05 0.0
0.24735 -0.000103039 0.0
0.229607 -0.000126011 0.0
0.226323 -8.8857e-05 0.0
0.249983 -0.000103552 0.0
0.246426 -0.000100733 0.0
0.23668 -9.48181e-05 0.0
0 0 0.0
0.0322503 -6.00132e-06 0.0
0.0956964 -3.54735e-05 0.0
0.0694289 -2.67372e-05 0.0
0.178876 -6.22111e-05 0.0
0.206269 -8.33137e-05 0.0
0.127476 -4.7918e-05 0.0
0.165873 -7.87868e-05 0.0
0.152325 -5.63492e-05 0.0
0 0 0.0
0.0360798 -5.13532e-06 0.0
0.062196 -1.60998e-05 0.0
0.0956302 -3.61373e-05 0.0
0.127524 -4.83861e-05 0.0
0.156661 -7.03814e-05 0.0
0.1156 -5.56001e-05 0.0
0.193626 -0.000116322 0.0
0.218141 -0.000147334 0.0
0.24094 -0.000134299 0.0
0.247737 -0.000139302 0.0
0.25 -0.000140829 0.0
0.234398 -0.00017067 0.0
0.229577 -0.000124263 0.0
0.247727 -0.000138993 0.0
0.240919 -0.00013406 0.0
0 0 0.0
0.0344867 -8.32426e-06 0.0
0.103121 -5.46644e-05 0.0
0.0623024 -2.71032e-05 0.0
0.189727 -9.87696e-05 0.0
0.212989 -0.000138168 0.0
0.170534 -0.000107017 0.0
0.14433 -7.93528e-05 0.0
0 0 0.0
0.0398984 -8.85847e-06 0.0
0.0997866 -4.9649e-05 0.0
0.0693216 -2.62921e-05 0.0
0.170624 -0.000107153 0.0
0.144421 -8.10733e-05 0.0
0.124377 -8.22821e-05 0.0
0.183649 -0.000135619 0.0
0.204131 -0.000162493 0.0
0.222038 -0.000191459 0.0
0.249109 -0.000185112 0.0
0.244026 -0.000180159 0.0
0.24912 -0.00018512 0.0
0.238551 -0.000217585 0.0
0.234353 -0.000169661 0.0
0.244883 -0.000195201 0.0
0 0 0.0
0.0322911 -8.82526e-06 0.0
0.0940736 -5.75161e-05 0.0
0.0652165 -3.43455e-05 0.0
0.196696 -0.000148341 0.0
0.217871 -0.000182424 0.0
0.177438 -0.000150648 0.0
0.14869 -0.000104939 0.0
0.120329 -7.33635e-05 0.0
0 0 0.0
0.0343913 -8.40258e-06 0.0
0.0716448 -3.4428e-05 0.0
0.152424 -0.000117788 0.0
0.127614 -0.000102343 0.0
0.187578 -0.000168445 0.0
0.211951 -0.000210012 0.0
0.248605 -0.000230083 0.0
0.225685 -0.000238066 0.0
0.249783 -0.000231758 0.0
0.246474 -0.000227838 0.0
0.242064 -0.000266952 0.0
0.23849 -0.000216969 0.0
0 0 0.0
0.0338732 -1.1078e-05 0.0
0.0999924 -7.69959e-05 0.0
0.069544 -4.58119e-05 0.0
0.20626 -0.000196554 0.0
0.222405 -0.000229281 0.0
0.189975 -0.000204415 0.0
0.168254 -0.000164936 0.0
0.143004 -0.000126376 0.0
0.124194 -9.31106e-05 0.0
0.0970846 -6.24569e-05 0.0
0 0 0.0
0.0360217 -1.07188e-05 0.0
0.0673158 -3.69365e-05 0.0
0.130334 -0.000123886 0.0
0.168482 -0.000165757 0.0
0.199473 -0.000216447 0.0
0.218378 -0.000254204 0.0
0.241992 -0.000267605 0.0
0.25 -0.000279382 0.0
0.247989 -0.000276114 0.0
0.229081 -0.000287015 0.0
0.244938 -0.000318318 0.0
0.248741 -0.000293289 0.0
0.234445 -0.000274297 0.0
0 0 0.0
0.0362312 -1.43039e-05 0.0
0.122658 -0.000127073 0.0
0.0712281 -5.42697e-05 0.0
0.20835 -0.000240779 0.0
0.225126 -0.000286835 0.0
0.198048 -0.000250184 0.0
0.177725 -0.000207005 0.0
0.146526 -0.000152459 0.0
0.119132 -0.000106346 0.0
0.0970518 -7.09321e-05 0.0
0 0 0.0
0.0349398 -1.20129e-05 0.0
0.0672787 -4.16333e-05 0.0
0.152301 -0.000173509 0.0
0.178017 -0.000211926 0.0
0.210116 -0.000268311 0.0
0.244858 -0.000318241 0.0
0.24942 -0.00032695 0.0
0.232226 -0.000338095 0.0
0.244197 -0.000362548 0.0
0.249989 -0.000387127 0.0
0.249132 -0.000343659 0.0
0.235913 -0.000328996 0.0
0.212963 -0.000328202 0.0
0 0 0.0
0.0371598 -1.68724e-05 0.0
0.14111 -0.000177178 0.0
0.0999571 -0.000106966 0.0
0.0665984 -5.2923e-05 0.0
0.213629 -0.000293414 0.0
0.186607 -0.000255412 0.0
0.165084 -0.000207711 0.0
0.122241 -0.000127729 0.0
0.0928666 -7.78982e-05 0.0
0 0 0.0
0.0349104 -1.34256e-05 0.0
0.0642278 -4.42495e-05 0.0
0.165597 -0.000222165 0.0
0.186968 -0.000261184 0.0
0.158124 -0.000232653 0.0
0.247091 -0.000372381 0.0
0.248691 -0.000428488 0.0
0.231052 -0.000380046 0.0
0.240526 -0.000405662 0.0
0.248757 -0.000428124 0.0
0.240203 -0.000378896 0.0
0.229256 -0.000372403 0.0
0.199182 -0.00032143 0.0
0.218635 -0.000384448 0.0
0 0 0.0
0.0346472 -1.65628e-05 0.0
0.12617 -0.000172335 0.0
0.0681769 -5.98591e-05 0.0
0.0988193 -0.000116591 0.0
0.208082 -0.000336118 0.0
0.189759 -0.000292928 0.0
0.168125 -0.00024301 0.0
0.140619 -0.000175817 0.0
0.0954094 -9.27858e-05 0.0
0 0 0.0
0.0332547 -1.37502e-05 0.0
0.0660572 -5.27364e-05 0.0
0.183224 -0.00030382 0.0
0.159263 -0.000260609 0.0
0.244898 -0.000441949 0.0
0.24966 -0.000485411 0.0
0.235962 -0.000445194 0.0
0.244858 -0.000470607 0.0
0.249378 -0.000484181 0.0
0.23862 -0.000447645 0.0
0.21842 -0.000404576 0.0
0.203105 -0.000375428 0.0
0.223371 -0.000439908 0.0
0 0 0.0
0.0478041 -3.3121e-05 0.0
0.127922 -0.000196676 0.0
0.0904236 -0.000109476 0.0
0.202607 -0.000361603 0.0
0.177966 -0.00029727 0.0
0.147886 -0.000222887 0.0
0.118719 -0.000145917 0.0
0.0780279 -7.7874e-05 0.0
0 0 0.0
0.0342332 -1.62108e-05 0.0
0.187833 -0.0003601 0.0
0.160402 -0.000290192 0.0
0.246451 -0.00050547 0.0
0.25 -0.000544827 0.0
0.24014 -0.000514413 0.0
0.247577 -0.000567347 0.0
0.239859 -0.000514031 0.0
0.227291 -0.00047591 0.0
0.209728 -0.000423313 0.0
0.227725 -0.000499564 0.0
0.210291 -0.000441162 0.0
0 0 0.0
0.0478673 -3.6948e-05 0.0
0.128017 -0.000219729 0.0
0.090506 -0.000120423 0.0
0.187169 -0.000358228 0.0
0.159617 -0.000280632 0.0
0.0472 -3.24541e-05 0.0
0.127082 -0.000193938 0.0
0.0895893 -0.000107117 0.0
0 0 0.0
0.187909 -0.000404973 0.0
0.160493 -0.000325013 0.0
0.24742 -0.00057388 0.0
0.249999 -0.000614264 0.0
0.240173 -0.000580317 0.0
0.247595 -0.000638191 0.0
0.227244 -0.000536235 0.0
0.239826 -0.000579237 0.0
0.187092 -0.000402742 0.0
0.209665 -0.00047664 0.0
0.227765 -0.000548718 0.0
0.210356 -0.000496201 0.0
0 0 0.0
0.0479371 -4.05327e-05 0.0
0.128124 -0.000244438 0.0
0.0906179 -0.000135104 0.0
0.126987 -0.000217459 0.0
0.159529 -0.000315095 0.0
0.0471409 -3.59916e-05 0.0
0.0894992 -0.000119102 0.0
0 0 0.0
0.187996 -0.000452516 0.0
0.160595 -0.000362502 0.0
0.247402 -0.000644524 0.0
0.249999 -0.00068856 0.0
0.22781 -0.000602198 0.0
0.240224 -0.000679202 0.0
0.247613 -0.000714597 0.0
0.227198 -0.000587402 0.0
0.239789 -0.000649247 0.0
0.187028 -0.00043698 0.0
0.209593 -0.000533544 0.0
0.21043 -0.000554958 0.0
0 0 0.0
0.0480188 -4.50814e-05 0.0
0.128262 -0.00027508 0.0
0.0907318 -0.000149274 0.0
0.126898 -0.000237627 0.0
0.15943 -0.00035104 0.0
0.0470691 -3.99728e-05 0.0
0.0893995 -0.000131508 0.0
0 0 0.0
0.160709 -0.000402282 0.0
0.188119 -0.000516197 0.0
0.247382 -0.000720249 0.0
0.249998 -0.000768312 0.0
0.240259 -0.000741913 0.0
0.227895 -0.000696886 0.0
0.247635 -0.000795635 0.0
0.239748 -0.000723849 0.0
0.22715 -0.000643201 0.0
0.186934 -0.000486303 0.0
0.209513 -0.000594043 0.0
0.210513 -0.000618469 0.0
0 0 0.0
0.0481011 -4.97327e-05 0.0
0.128377 -0.000300008 0.0
0.0908577 -0.000164731 0.0
0.126781 -0.000263034 0.0
0.159319 -0.000389861 0.0
0 0 0.0
0.0892881 -0.000145443 0.0
0.0469968 -4.39144e-05 0.0
0.188231 -0.000574308 0.0
0.160837 -0.000446036 0.0
0.227953 -0.000760035 0.0
0.247359 -0.000802346 0.0
0.249998 -0.000854699 0.0
0.247653 -0.000863973 0.0
0.240296 -0.000807476 0.0
0.239701 -0.000804685 0.0
0.227084 -0.000715485 0.0
0.1868 -0.000552819 0.0
0.209423 -0.000660174 0.0
0.210606 -0.000686327 0.0
0 0 0.0
0.0481948 -5.48332e-05 0.0
0.0909824 -0.000179543 0.0
0.128524 -0.000331038 0.0
0.126631 -0.000294646 0.0
0.159194 -0.000431535 0.0
0 0 0.0
0.04691 -4.82794e-05 0.0
0.0891789 -0.000158274 0.0
0.188325 -0.000619541 0.0
0.160979 -0.000493563 0.0
0.228015 -0.000827839 0.0
0.240369 -0.000933093 0.0
0.247334 -0.000891358 0.0
0.249997 -0.000947774 0.0
0.247674 -0.000935884 0.0
0.239648 -0.000892157 0.0
0.22701 -0.000793893 0.0
0.18671 -0.00059674 0.0
0.209323 -0.000730644 0.0
0.210709 -0.000760661 0.0
0 0 0.0
0.0482992 -6.02113e-05 0.0
0.128714 -0.000371547 0.0
0.0911512 -0.000200601 0.0
0.126508 -0.000320201 0.0
0.159056 -0.000476612 0.0
0.0468234 -5.2406e-05 0.0
0 0 0.0
0.0890318 -0.000175542 0.0
0.161137 -0.000545335 0.0
0.188494 -0.00070147 0.0
0.228133 -0.000948822 0.0
0.240429 -0.00103438 0.0
0.247701 -0.00103706 0.0
0.247292 -0.00103152 0.0
0.249996 -0.00105071 0.0
0.23959 -0.000989287 0.0
0.226896 -0.000908462 0.0
0.186544 -0.000674948 0.0
0.209212 -0.000808553 0.0
0.210823 -0.000841031 0.0
0 0 0.0
0.0484129 -6.61067e-05 0.0
0.0913203 -0.00022013 0.0
0.161311 -0.000600278 0.0
0.128869 -0.000403014 0.0
0.12635 -0.000352374 0.0
0.158935 -0.000515342 0.0
0.0467228 -5.77979e-05 0.0
0 0 0.0
0.0888973 -0.000191268 0.0
0.21093 -0.00091556 0.0
0.18861 -0.000757094 0.0
0.240481 -0.00111986 0.0
0.22823 -0.00105122 0.0
0.247748 -0.00119712 0.0
0.249996 -0.00116136 0.0
0.247266 -0.00111499 0.0
0.239525 -0.00109307 0.0
0.226818 -0.000986063 0.0
0.186433 -0.000726523 0.0
0.158734 -0.000579183 0.0
0.209088 -0.000891948 0.0
0 0 0.0
0.0914898 -0.000240814 0.0
0.0485468 -7.35771e-05 0.0
0.161464 -0.000650665 0.0
0.1291 -0.000452302 0.0
0.126174 -0.000387854 0.0
0 0 0.0
0.0466127 -6.3389e-05 0.0
0.0887182 -0.000211952 0.0
0.211048 -0.000994589 0.0
0.188818 -0.000858017 0.0
0.240537 -0.00121181 0.0
0.228338 -0.00116182 0.0
0.247775 -0.00129542 0.0
0.249993 -0.0012834 0.0
0.247238 -0.00120666 0.0
0.158585 -0.000623231 0.0
0.208972 -0.000968837 0.0
0.239452 -0.00120547 0.0
0.226732 -0.0010705 0.0
0.186272 -0.00080117 0.0
0 0 0.0
0.0486788 -8.03446e-05 0.0
0.0916924 -0.000264915 0.0
0.161674 -0.000716776 0.0
0.129325 -0.000498974 0.0
0.0885372 -0.000231895 0.0
0.12595 -0.000432232 0.0
0 0 0.0
0.0464863 -6.98905e-05 0.0
0.211199 -0.00109754 0.0
0.189008 -0.000947471 0.0
0.240615 -0.00133764 0.0
0.228458 -0.00128328 0.0
0.247805 -0.00140049 0.0
0.249993 -0.00141798 0.0
0.24718 -0.00138939 0.0
0.158383 -0.000685115 0.0
0.239373 -0.00133082 0.0
0.208846 -0.00104961 0.0
0.226578 -0.00122274 0.0
0.186045 -0.00090634 0.0
0 0 0.0
0.0919413 -0.000295041 0.0
0.0488316 -8.85199e-05 0.0
0.161952 -0.000805217 0.0
0.129572 -0.00055032 0.0
0.0883599 -0.000252138 0.0
0.125733 -0.000475818 0.0
0 0 0.0
0.0463528 -7.67426e-05 0.0
0.189216 -0.00104674 0.0
0.211366 -0.00121172 0.0
0.240701 -0.00147795 0.0
0.247848 -0.00154313 0.0
0.228589 -0.00141605 0.0
0.24999 -0.00156214 0.0
0.247135 -0.00153576 0.0
0.239285 -0.00146551 0.0
0.249559 -0.00167432 0.0
0.158158 -0.000752905 0.0
0.226447 -0.00134867 0.0
0.20863 -0.00118989 0.0
0.185895 -0.00097391 0.0
0 0 0.0
0.0921691 -0.000322735 0.0
0.049011 -9.87306e-05 0.0
0.16216 -0.000871956 0.0
0.129845 -0.000606973 0.0
0.0881448 -0.000276403 0.0
0.125532 -0.000515578 0.0
0 0 0.0
0.046215 -8.38151e-05 0.0
0.189447 -0.00115503 0.0
0.211551 -0.00133761 0.0
0.240791 -0.00162898 0.0
0.228735 -0.00156446 0.0
0.247914 -0.00178061 0.0
0.249165 -0.00167417 0.0
0.243774 -0.00162484 0.0
0.233392 -0.00152609 0.0
0.249985 -0.00181119 0.0
0.157912 -0.000827259 0.0
0.218025 -0.00138174 0.0
0.203219 -0.00124925 0.0
0.185619 -0.00109578 0.0
0 0 0.0
0.0924422 -0.000356081 0.0
0.0491973 -0.000108374 0.0
0.162441 -0.000962717 0.0
0.130147 -0.000670406 0.0
0.125233 -0.000574189 0.0
0.0879078 -0.000303441 0.0
0 0 0.0
0.0460489 -9.16214e-05 0.0
0.189702 -0.00127551 0.0
0.211755 -0.00147668 0.0
0.247963 -0.00196199 0.0
0.228895 -0.00172657 0.0
0.240897 -0.00179852 0.0
0.247052 -0.00178842 0.0
0.239122 -0.00171181 0.0
0.226201 -0.00158259 0.0
0.249978 -0.00199659 0.0
0.157639 -0.000910208 0.0
0.208302 -0.00140152 0.0
0.18537 -0.00120611 0.0
0 0 0.0
0.0493937 -0.000118925 0.0
0.0927445 -0.00039393 0.0
0.130428 -0.000729155 0.0
0.189981 -0.00140668 0.0
0.162754 -0.00106318 0.0
0.124944 -0.000630533 0.0
0.0876472 -0.000333273 0.0
0.0458729 -0.000100527 0.0
0 0 0.0
0.22904 -0.00187419 0.0
0.211981 -0.00163239 0.0
0.248008 -0.00211892 0.0
0.241009 -0.00198749 0.0
0.22603 -0.00174147 0.0
0.246988 -0.00197013 0.0
0.239001 -0.00188517 0.0
0.249973 -0.00220083 0.0
0.1851 -0.00132512 0.0
0.157278 -0.0010173 0.0
0.208009 -0.00158633 0.0
0 0 0.0
0.0496217 -0.000132086 0.0
0.0931153 -0.000439898 0.0
0.13079 -0.000804655 0.0
0.19021 -0.00151932 0.0
0.16317 -0.00120308 0.0
0.124628 -0.000691434 0.0
0.0873331 -0.000369093 0.0
0.0456818 -0.000109825 0.0
0 0 0.0
0.124277 -0.000760545 0.0
0.229195 -0.00202887 0.0
0.212307 -0.00186279 0.0
0.241185 -0.00228547 0.0
0.248054 -0.00228481 0.0
0.225772 -0.00198037 0.0
0.238873 -0.00207397 0.0
0.24692 -0.00217208 0.0
0.249962 -0.00242598 0.0
0.184801 -0.00145617 0.0
0.156941 -0.00112112 0.0
0.207758 -0.00174807 0.0
0 0 0.0
0.0498734 -0.000145945 0.0
0.0934908 -0.000487301 0.0
0.131191 -0.000890956 0.0
0.190546 -0.00167766 0.0
0.163562 -0.00133308 0.0
0.0454681 -0.000121651 0.0
0.0870133 -0.00040643 0.0
0 0 0.0
0.123955 -0.000822071 0.0
0.229402 -0.00224559 0.0
0.212591 -0.00206181 0.0
0.241326 -0.00252365 0.0
0.248115 -0.00252401 0.0
0.225591 -0.00214448 0.0
0.238731 -0.00228171 0.0
0.249952 -0.00267582 0.0
0.246805 -0.00249968 0.0
0.184555 -0.00156015 0.0
0.156571 -0.00123211 0.0
0.207481 -0.00192028 0.0
0 0 0.0
0.05015 -0.000161085 0.0
0.0939038 -0.000538821 0.0
0.131704 -0.00100072 0.0
0.19101 -0.00190367 0.0
0.212901 -0.0022851 0.0
0.163991 -0.00147963 0.0
0.0452497 -0.000132865 0.0
0.0866659 -0.00044611 0.0
0 0 0.0
0.123542 -0.000902749 0.0
0.22971 -0.00256784 0.0
0.241446 -0.00273774 0.0
0.248182 -0.0027875 0.0
0.249938 -0.00288241 0.0
0.225401 -0.00231701 0.0
0.238564 -0.00251431 0.0
0.246711 -0.00275337 0.0
0.156165 -0.00135458 0.0
0.184201 -0.00171368 0.0
0.207174 -0.00210894 0.0
0 0 0.0
0.0504776 -0.000180423 0.0
0.0943666 -0.0006002 0.0
0.132206 -0.00111425 0.0
0.191324 -0.00206079 0.0
0.213241 -0.00252958 0.0
0.164469 -0.00164376 0.0
0.0449959 -0.000145488 0.0
0.0862832 -0.000489835 0.0
0 0 0.0
0.155813 -0.00145338 0.0
0.0858653 -0.000535496 0.0
0.123017 -0.00100317 0.0
0.229967 -0.00285598 0.0
0.241572 -0.00295946 0.0
0.248283 -0.00321874 0.0
0.249927 -0.0030991 0.0
0.246632 -0.00296941 0.0
0.225145 -0.00254402 0.0
0.238312 -0.00287438 0.0
0.183708 -0.00192175 0.0
0.206889 -0.00228824 0.0
0.230198 -0.00310258 0.0
0 0 0.0
0.0508237 -0.000201094 0.0
0.132764 -0.00124343 0.0
0.0948806 -0.000671121 0.0
0.213619 -0.00281271 0.0
0.19189 -0.00234976 0.0
0.164997 -0.00182948 0.0
0.0447054 -0.00015981 0.0
0 0 0.0
0.18338 -0.00206247 0.0
0.155334 -0.00159377 0.0
0.122509 -0.00110142 0.0
0.0443957 -0.000176508 0.0
0.0854038 -0.000588201 0.0
0.241748 -0.00327663 0.0
0.24834 -0.00348042 0.0
0.249898 -0.00341842 0.0
0.249875 -0.00368335 0.0
0.24654 -0.00319855 0.0
0.224856 -0.00279613 0.0
0.238094 -0.00316237 0.0
0.206577 -0.00246957 0.0
0.230436 -0.00337656 0.0
0.0511937 -0.000225231 0.0
0 0 0.0
0.133287 -0.0013648 0.0
0.0954511 -0.000750222 0.0
0.214029 -0.00312757 0.0
0.192271 -0.00255042 0.0
0.165584 -0.00204311 0.0
0 0 0.0
0.182911 -0.00225251 0.0
0.154698 -0.00177187 0.0
0.122046 -0.00118284 0.0
0.044079 -0.000192262 0.0
0.0849023 -0.000643001 0.0
0.242004 -0.00378278 0.0
0.2484 -0.00375518 0.0
0.249842 -0.00396162 0.0
0.246349 -0.00366767 0.0
0.224542 -0.00306538 0.0
0.237861 -0.00347495 0.0
0.206051 -0.00278246 0.0
0.230761 -0.00375366 0.0
0 0 0.0
0.0516254 -0.000254742 0.0
0.133965 -0.00153119 0.0
0.09603 -0.000835421 0.0
0.166233 -0.00228308 0.0
0.21448 -0.00348778 0.0
0.192964 -0.00292134 0.0
0 0 0.0
0 0 0.0
0.18239 -0.0024625 0.0
0.154111 -0.00193666 0.0
0.121451 -0.00129145 0.0
0.0843555 -0.000701053 0.0
0.0437144 -0.000209041 0.0
0.242206 -0.00419343 0.0
0.248468 -0.00415362 0.0
0.237648 -0.00374409 0.0
0.249791 -0.00436622 0.0
0.246185 -0.00404082 0.0
0.224187 -0.00336299 0.0
0.205591 -0.00304142 0.0
0.242369 -0.00456071 0.0
0.231096 -0.00417616 0.0
0.0521075 -0.000285855 0.0
0.0967371 -0.000937609 0.0
0.134728 -0.00172816 0.0
0.166808 -0.00250999 0.0
0.214974 -0.00389079 0.0
0.193424 -0.00319052 0.0
0 0 0.0
0 0 0.0
0.153605 -0.00206498 0.0
0.181672 -0.00273572 0.0
0.083821 -0.000752747 0.0
0.120703 -0.00141978 0.0
0.0433158 -0.000228628 0.0
0.248572 -0.00479091 0.0
0.249715 -0.00481746 0.0
0.205089 -0.00331895 0.0
0.237413 -0.00402551 0.0
0.246045 -0.00435407 0.0
0.223645 -0.00379503 0.0
0.242544 -0.00494494 0.0
0.231607 -0.00483048 0.0
0.215504 -0.00435257 0.0
0.0526891 -0.000326519 0.0
0.0975401 -0.00106789 0.0
0.135713 -0.00199448 0.0
0.167595 -0.00282107 0.0
0.194263 -0.00368907 0.0
0 0 0.0
0 0 0.0
0.152776 -0.00227301 0.0
0.181029 -0.00297763 0.0
0.0831167 -0.000821036 0.0
0.119992 -0.00153411 0.0
0.0428667 -0.000247071 0.0
0.245883 -0.00468754 0.0
0.249622 -0.00530244 0.0
0.24862 -0.00530642 0.0
0.204533 -0.00361284 0.0
0.237091 -0.00441317 0.0
0.223187 -0.00415604 0.0
0.180325 -0.00322691 0.0
0.24284 -0.00571728 0.0
0 0 0.0
0.231989 -0.0054028 0.0
0.19501 -0.00416416 0.0
0.216074 -0.00487231 0.0
0.0532996 -0.000375412 0.0
0.136541 -0.00223615 0.0
0.0985555 -0.00124894 0.0
0.168648 -0.00328874 0.0
0 0 0.0
0 0 0.0
0 0 0.0
0 0 0.0
0 0 0.0
0.0424268 -0.000263364 0.0
0.119217 -0.00165468 0.0
0.152013 -0.002458 0.0
0.082493 -0.000878186 0.0
0.245641 -0.00513878 0.0
0.249493 -0.00583889 0.0
0.248663 -0.00587289 0.0
0.222765 -0.00445355 0.0
0.203911 -0.0039249 0.0
0.236551 -0.00499925 0.0
0.203336 -0.00420063 0.0
0.17975 -0.00341472 0.0
0.243041 -0.00635986 0.0
0.232398 -0.00602823 0.0
0 0 0.0
8.86255e-05 -4.1045e-05 0.0
0 0 0.0
-0.000211188 0.00086775 0.0
0.21669 -0.00547479 0.0
0.195622 -0.00456337 0.0
0.0540686 -0.000441818 0.0
0.137619 -0.00256232 0.0
0.099617 -0.00145142 0.0
0.169647 -0.00375672 0.0
0 0 0.0
0 0 0.0
0 0 0.0
-0.000142554 0.00033938 0.0
1.86727e-05 -0.000172894 0.0
0.000111797 -0.000127595 0.0
0 0 0.0
0.0419269 -0.000283325 0.0
0.118517 -0.00175321 0.0
0.151183 -0.00264274 0.0
0.0816785 -0.000946004 0.0
0.245363 -0.00564017 0.0
0.249325 -0.00642224 0.0
0.248677 -0.00649041 0.0
0.222305 -0.00477419 0.0
0.2362 -0.00537429 0.0
0.202704 -0.00447955 0.0
0.178706 -0.00373725 0.0
0.243239 -0.00706335 0.0
0.235866 -0.00678712 0.0
0.225634 -0.00637206 0.0
0 0 0.0
0.000188162 -3.40248e-05 0.0
0 0 0.0
0 0 0.0
-0.000785572 0.00229138 0.0
-0.000685605 0.0013059 0.0
0.212518 -0.00585591 0.0
0.196481 -0.00517665 0.0
0.100714 -0.00167574 0.0
0.0548922 -0.000527825 0.0
0.138833 -0.00296799 0.0
0.170733 -0.00430926 0.0
0 0 0.0
-0.00016198 1.59907e-06 0.0
-0.000409015 0.000490875 0.0
-2.26041e-05 -0.000106137 0.0
9.2053e-05 -1.47593e-05 0.0
0 0 0.0
0.0413952 -0.000302385 0.0
0.117634 -0.00186953 0.0
0.150287 -0.0028217 0.0
0.0808798 -0.0010076 0.0
0.245027 -0.00617504 0.0
0.249116 -0.00705355 0.0
0.248658 -0.00716762 0.0
0.22145 -0.00533597 0.0
0.235802 -0.00575475 0.0
0.201885 -0.00482868 0.0
0.149312 -0.00301352 0.0
0.177774 -0.00400893 0.0
0.243378 -0.00767216 0.0
0.23308 -0.00725326 0.0
0.217803 -0.00671609 0.0
0 0 0.0
0.000168631 3.03944e-05 0.0
0 0 0.0
0 0 0.0
0 0 0.0
0 0 0.0
-0.0011678 0.00143328 0.0
-0.000246748 0.00214181 0.0
-0.000852592 0.00319254 0.0
-0.00193272 0.00431724 0.0
-0.00151476 0.00270911 0.0
0 0 0.0
-0.000101245 0.00391502 0.0
0.19763 -0.00610703 0.0
0.171676 -0.00484781 0.0
0 0 0.0
0.05597 -0.000653461 0.0
0.102109 -0.00199805 0.0
0.14042 -0.0035948 0.0
0 0 0.0
0 0 0.0
-0.000582785 0.000517705 0.0
-0.000316 0.000243745 0.0