# vtk DataFile Version 3.0
Mesh NS-CD Problem
ASCII
DATASET UNSTRUCTURED_GRID
POINTS 10839 float
-2 0.3 0.0
-2 0.4 0.0
-2 0.35 0.0
-2 0.45 0.0
-2 0.5 0.0
-2 0.55 0.0
-2 0 0.0
-2 0.05 0.0
-2 0.85 0.0
-2 0.9 0.0
-2 0.1 0.0
-2 0.15 0.0
-2 0.25 0.0
-2 0.2 0.0
-1.96653 0.266667 0.0
-1.96524 0.415385 0.0
-1.96485 0.315 0.0
-1.96348 0.363636 0.0
-1.96414 0.464286 0.0
-2 0.6 0.0
-1.96538 0.584615 0.0
-1.96538 0.538462 0.0
-1.94979 0 0.0
-1.96653 0.0666666 0.0
-1.93306 0.0333333 0.0
-2 0.8 0.0
-2 0.75 0.0
-2 0.7 0.0
-2 0.65 0.0
-1.96249 0.7375 0.0
-1.96666 0.833333 0.0
-2 1 0.0
-2 0.95 0.0
-1.96249 0.8875 0.0
-1.96666 0.933333 0.0
-1.96234 0.1125 0.0
-1.96653 0.166667 0.0
-1.93724 0.225 0.0
-1.92971 0.28 0.0
-1.93048 0.380769 0.0
-1.93048 0.423077 0.0
-1.89958 0.3375 0.0
-1.9292 0.484203 0.0
-1.92117 0.530907 0.0
-1.96363 0.636364 0.0
-1.93076 0.576923 0.0
-1.89958 0 0.0
-1.88703 0.0375 0.0
-1.90963 0.08 0.0
-1.86611 0.0666666 0.0
-1.93749 0.775 0.0
-1.93635 0.672727 0.0
-1.92999 0.72 0.0
-1.93332 0.866667 0.0
-1.92856 0.821429 0.0
-1.94999 1 0.0
-1.92499 0.9625 0.0
-1.92499 0.925 0.0
-1.89998 0.9 0.0
-1.89958 0.125 0.0
-1.92827 0.178571 0.0
-1.89958 0.233333 0.0
-1.89045 0.290909 0.0
-1.86096 0.311538 0.0
-1.89241 0.392857 0.0
-1.89334 0.448489 0.0
-1.85655 0.357143 0.0
-1.89614 0.653846 0.0
-1.89427 0.504121 0.0
-1.8952 0.559753 0.0
-1.89614 0.615385 0.0
-1.84937 0 0.0
-1.83264 0.0333333 0.0
-1.85655 0.107143 0.0
-1.81172 0.075 0.0
-1.89998 0.766667 0.0
-1.89089 0.709091 0.0
-1.87498 0.85 0.0
-1.85998 0.79 0.0
-1.88748 0.8125 0.0
-1.89998 1 0.0
-1.88748 0.9625 0.0
-1.86664 0.933333 0.0
-1.85712 0.892857 0.0
-1.87448 0.15 0.0
-1.86611 0.194444 0.0
-1.83264 0.133333 0.0
-1.83264 0.2625 0.0
-1.82068 0.321429 0.0
-1.85664 0.404762 0.0
-1.85674 0.452381 0.0
-1.85683 0.5 0.0
-1.81184 0.375 0.0
-1.85712 0.642857 0.0
-1.85693 0.547619 0.0
-1.85702 0.595238 0.0
-1.79917 0 0.0
-1.78482 0.0357143 0.0
-1.79917 0.116667 0.0
-1.76569 0.0666666 0.0
-1.85452 0.745455 0.0
-1.82689 0.692308 0.0
-1.81815 0.781818 0.0
-1.82497 0.825 0.0
-1.84997 1 0.0
-1.8333 0.958333 0.0
-1.81247 0.8875 0.0
-1.81247 0.925 0.0
-1.81742 0.218182 0.0
-1.82427 0.175 0.0
-1.77634 0.145455 0.0
-1.79144 0.242308 0.0
-1.78482 0.285714 0.0
-1.77469 0.332653 0.0
-1.81215 0.529762 0.0
-1.81194 0.422619 0.0
-1.81203 0.470238 0.0
-1.76714 0.392857 0.0
-1.81234 0.625 0.0
-1.79732 0.571429 0.0
-1.74896 0 0.0
-1.73222 0.0333333 0.0
-1.75398 0.105 0.0
-1.71883 0.07 0.0
-1.79227 0.730769 0.0
-1.78007 0.679121 0.0
-1.75765 0.769231 0.0
-1.78178 0.818182 0.0
-1.78996 0.86 0.0
-1.79996 1 0.0
-1.78568 0.964286 0.0
-1.76663 0.922222 0.0
-1.76569 0.1875 0.0
-1.73222 0.15 0.0
-1.74896 0.25 0.0
-1.73714 0.304762 0.0
-1.76743 0.537202 0.0
-1.72869 0.343878 0.0
-1.76732 0.485119 0.0
-1.76723 0.440476 0.0
-1.72243 0.410714 0.0
-1.76757 0.607143 0.0
-1.69875 0 0.0
-1.68369 0.035 0.0
-1.69875 0.1125 0.0
-1.66528 0.075 0.0
-1.74341 0.708974 0.0
-1.73324 0.665934 0.0
-1.70441 0.74478 0.0
-1.71423 0.785714 0.0
-1.72303 0.826923 0.0
-1.74541 0.854545 0.0
-1.74541 0.890909 0.0
-1.74996 1 0.0
-1.73745 0.9625 0.0
-1.71359 0.927273 0.0
-1.68716 0.153846 0.0
-1.7131 0.214286 0.0
-1.70725 0.275 0.0
-1.69712 0.321939 0.0
-1.72279 0.589286 0.0
-1.72261 0.5 0.0
-1.7227 0.544643 0.0
-1.6827 0.355102 0.0
-1.67773 0.428571 0.0
-1.70763 0.464286 0.0
-1.70369 0.62449 0.0
-1.64854 0 0.0
-1.63181 0.0375 0.0
-1.64137 0.142857 0.0
-1.61764 0.0769231 0.0
-1.69458 0.703846 0.0
-1.67471 0.657437 0.0
-1.66143 0.727637 0.0
-1.67125 0.768571 0.0
-1.67851 0.821429 0.0
-1.68841 0.861538 0.0
-1.70904 0.890909 0.0
-1.69995 1 0.0
-1.68176 0.963636 0.0
-1.67267 0.927273 0.0
-1.65427 0.187143 0.0
-1.66718 0.231429 0.0
-1.66554 0.3 0.0
-1.67802 0.571429 0.0
-1.67792 0.523809 0.0
-1.6367 0.366327 0.0
-1.63682 0.423469 0.0
-1.62568 0.502976 0.0
-1.6629 0.470238 0.0
-1.65254 0.618367 0.0
-1.6059 0.307143 0.0
-1.59833 0 0.0
-1.58288 0.0384615 0.0
-1.60563 0.169643 0.0
-1.58179 0.112271 0.0
-1.56964 0.0714286 0.0
-1.64574 0.690385 0.0
-1.62827 0.751429 0.0
-1.63371 0.791071 0.0
-1.64279 0.857143 0.0
-1.65378 0.896154 0.0
-1.64994 1 0.0
-1.6363 0.963636 0.0
-1.61916 0.930769 0.0
-1.61345 0.209107 0.0
-1.62126 0.248571 0.0
-1.56989 0.196429 0.0
-1.63324 0.553571 0.0
-1.58846 0.535714 0.0
-1.59408 0.361905 0.0
-1.59161 0.402211 0.0
-1.58832 0.464286 0.0
-1.61504 0.598581 0.0
-1.59683 0.64359 0.0
-1.57899 0.274107 0.0
-1.56176 0.322381 0.0
-1.54812 0 0.0
-1.53378 0.0357143 0.0
-1.54593 0.147619 0.0
-1.53385 0.0732143 0.0
-1.53393 0.110714 0.0
-1.58522 0.704286 0.0
-1.58709 0.745 0.0
-1.58896 0.785714 0.0
-1.60695 0.830357 0.0
-1.60707 0.892857 0.0
-1.59993 1 0.0
-1.58454 0.965385 0.0
-1.57135 0.928571 0.0
-1.55209 0.241071 0.0
-1.5291 0.198214 0.0
-1.56936 0.570918 0.0
-1.54369 0.517857 0.0
-1.5464 0.380952 0.0
-1.54564 0.427721 0.0
-1.54488 0.47449 0.0
-1.55026 0.606122 0.0
-1.54222 0.677143 0.0
-1.52943 0.282857 0.0
-1.52143 0.33619 0.0
-1.49792 0 0.0
-1.49802 0.05 0.0
-1.49822 0.15 0.0
-1.49312 0.1 0.0
-1.5423 0.717143 0.0
-1.54419 0.767857 0.0
-1.54727 0.819048 0.0
-1.57122 0.861905 0.0
-1.53553 0.914286 0.0
-1.54992 1 0.0
-1.53563 0.964286 0.0
-1.49842 0.25 0.0
-1.48831 0.2 0.0
-1.5214 0.558929 0.0
-1.49891 0.5 0.0
-1.49871 0.4 0.0
-1.47631 0.45 0.0
-1.49911 0.6 0.0
-1.49921 0.65 0.0
-1.49931 0.7 0.0
-1.48111 0.35 0.0
-1.48351 0.3 0.0
-1.44771 0 0.0
-1.44782 0.05 0.0
-1.44804 0.15 0.0
-1.44793 0.1 0.0
-1.49941 0.75 0.0
-1.49951 0.8 0.0
-1.49981 0.95 0.0
-1.49961 0.85 0.0
-1.49971 0.9 0.0
-1.49991 1 0.0
-1.44826 0.25 0.0
-1.43815 0.2 0.0
-1.47151 0.55 0.0
-1.44881 0.5 0.0
-1.44859 0.4 0.0
-1.42619 0.45 0.0
-1.44913 0.65 0.0
-1.44902 0.6 0.0
-1.44935 0.75 0.0
-1.44924 0.7 0.0
-1.43972 0.35 0.0
-1.43336 0.3 0.0
-1.3975 0 0.0
-1.39762 0.05 0.0
-1.39786 0.15 0.0
-1.39274 0.1 0.0
-1.44957 0.85 0.0
-1.44946 0.8 0.0
-1.4523 0.95 0.0
-1.44968 0.9 0.0
-1.4499 1 0.0
-1.3981 0.25 0.0
-1.38798 0.2 0.0
-1.42141 0.55 0.0
-1.3987 0.5 0.0
-1.39834 0.35 0.0
-1.37845 0.4 0.0
-1.37607 0.45 0.0
-1.40784 0.65 0.0
-1.39894 0.6 0.0
-1.41185 0.75 0.0
-1.39918 0.7 0.0
-1.38322 0.3 0.0
-1.34729 0 0.0
-1.34492 0.05 0.0
-1.34018 0.15 0.0
-1.34255 0.1 0.0
-1.40707 0.85 0.0
-1.39941 0.8 0.0
-1.39977 0.95 0.0
-1.39965 0.9 0.0
-1.39989 1 0.0
-1.33781 0.2 0.0
-1.33544 0.25 0.0
-1.37131 0.55 0.0
-1.34859 0.5 0.0
-1.33833 0.4 0.0
-1.3307 0.35 0.0
-1.32595 0.45 0.0
-1.34885 0.6 0.0
-1.36655 0.65 0.0
-1.36179 0.75 0.0
-1.34911 0.7 0.0
-1.33307 0.3 0.0
-1.29708 0 0.0
-1.29722 0.05 0.0
-1.2975 0.15 0.0
-1.29236 0.1 0.0
-1.35703 0.85 0.0
-1.34937 0.8 0.0
-1.34988 1 0.0
-1.34962 0.9 0.0
-1.35226 0.95 0.0
-1.28528 0.25 0.0
-1.28764 0.2 0.0
-1.28931 0.35 0.0
-1.32121 0.55 0.0
-1.29848 0.5 0.0
-1.28709 0.45 0.0
-1.2982 0.4 0.0
-1.29876 0.6 0.0
-1.31647 0.65 0.0
-1.29918 0.75 0.0
-1.29904 0.7 0.0
-1.28292 0.3 0.0
-1.24687 0 0.0
-1.24702 0.05 0.0
-1.24717 0.1 0.0
-1.24732 0.15 0.0
-1.29946 0.85 0.0
-1.29932 0.8 0.0
-1.29987 1 0.0
-1.29974 0.95 0.0
-1.30462 0.9 0.0
-1.24762 0.25 0.0
-1.23747 0.2 0.0
-1.24792 0.35 0.0
-1.22807 0.4 0.0
-1.27111 0.55 0.0
-1.24837 0.5 0.0
-1.24822 0.45 0.0
-1.24867 0.6 0.0
-1.26639 0.65 0.0
-1.26167 0.75 0.0
-1.24897 0.7 0.0
-1.23277 0.3 0.0
-1.19667 0 0.0
-1.19683 0.05 0.0
-1.18964 0.15 0.0
-1.19198 0.1 0.0
-1.25695 0.85 0.0
-1.24927 0.8 0.0
-1.25223 0.95 0.0
-1.24987 1 0.0
-1.24957 0.9 0.0
-1.1873 0.2 0.0
-1.18496 0.25 0.0
-1.18028 0.35 0.0
-1.17794 0.4 0.0
-1.1981 0.45 0.0
-1.19842 0.55 0.0
-1.19826 0.5 0.0
-1.19858 0.6 0.0
-1.19874 0.65 0.0
-1.19906 0.75 0.0
-1.1989 0.7 0.0
-1.18262 0.3 0.0
-1.14646 0 0.0
-1.14663 0.05 0.0
-1.1418 0.1 0.0
-1.13713 0.2 0.0
-1.14697 0.15 0.0
-1.20691 0.85 0.0
-1.20926 0.8 0.0
-1.20221 0.95 0.0
-1.19986 1 0.0
-1.20456 0.9 0.0
-1.13997 0.3 0.0
-1.14731 0.25 0.0
-1.13781 0.4 0.0
-1.13014 0.35 0.0
-1.12548 0.45 0.0
-1.14815 0.5 0.0
-1.15962 0.55 0.0
-1.14849 0.6 0.0
-1.15745 0.65 0.0
-1.16155 0.75 0.0
-1.14917 0.8 0.0
-1.14883 0.7 0.0
-1.09625 0 0.0
-1.09661 0.1 0.0
-1.09393 0.05 0.0
-1.09697 0.2 0.0
-1.08929 0.15 0.0
-1.15687 0.85 0.0
-1.14985 1 0.0
-1.15219 0.95 0.0
-1.14951 0.9 0.0
-1.09733 0.3 0.0
-1.08465 0.25 0.0
-1.09769 0.4 0.0
-1.08 0.35 0.0
-1.08661 0.45 0.0
-1.09804 0.5 0.0
-1.12082 0.55 0.0
-1.10916 0.8 0.0
-1.10629 0.7 0.0
-1.0984 0.6 0.0
-1.11616 0.65 0.0
-1.11149 0.75 0.0
-1.04604 0 0.0
-1.04623 0.05 0.0
-1.04642 0.1 0.0
-1.0468 0.2 0.0
-1.03911 0.15 0.0
-1.09948 0.9 0.0
-1.0993 0.85 0.0
-1.09984 1 0.0
-1.09966 0.95 0.0
-1.04718 0.3 0.0
-1.03449 0.25 0.0
-1.04756 0.4 0.0
-1.02986 0.35 0.0
-1.04775 0.45 0.0
-1.04794 0.5 0.0
-1.04813 0.55 0.0
-1.05911 0.8 0.0
-1.04831 0.6 0.0
-1.06376 0.7 0.0
-1.0485 0.65 0.0
-1.04888 0.75 0.0
-0.995833 0 0.0
-0.991231 0.1 0.0
-0.996033 0.05 0.0
-0.986629 0.2 0.0
-0.98893 0.15 0.0
-1.05447 0.9 0.0
-1.04926 0.85 0.0
-1.04983 1 0.0
-1.04964 0.95 0.0
-0.984328 0.25 0.0
-0.99703 0.3 0.0
-0.997429 0.4 0.0
-0.997628 0.45 0.0
-0.979726 0.35 0.0
-0.997827 0.5 0.0
-0.998027 0.55 0.0
-0.998226 0.6 0.0
-0.961416 0.475 0.0
-1.00907 0.8 0.0
-0.998426 0.65 0.0
-0.998625 0.7 0.0
-1.01138 0.75 0.0
-0.945625 0 0.0
-0.946044 0.1 0.0
-0.943334 0.05 0.0
-0.946463 0.2 0.0
-0.938752 0.15 0.0
-1.00444 0.9 0.0
-1.00675 0.85 0.0
-0.999821 1 0.0
-1.00213 0.95 0.0
-0.93417 0.25 0.0
-0.946881 0.3 0.0
-0.9473 0.4 0.0
-0.929588 0.35 0.0
-0.925005 0.45 0.0
-0.960371 0.525 0.0
-0.959325 0.575 0.0
-0.958279 0.625 0.0
-0.922714 0.5 0.0
-0.959017 0.8 0.0
-0.957233 0.675 0.0
-0.952999 0.7125 0.0
-0.948766 0.75 0.0
-0.895417 0 0.0
-0.895855 0.1 0.0
-0.893136 0.05 0.0
-0.896294 0.2 0.0
-0.888573 0.15 0.0
-0.949184 0.85 0.0
-0.954415 0.9 0.0
-0.949812 1 0.0
-0.949603 0.95 0.0
-0.884011 0.25 0.0
-0.896733 0.3 0.0
-0.874887 0.45 0.0
-0.879449 0.35 0.0
-0.897171 0.4 0.0
-0.920423 0.55 0.0
-0.918132 0.6 0.0
-0.915841 0.65 0.0
-0.872606 0.5 0.0
-0.908968 0.8 0.0
-0.91355 0.7 0.0
-0.898707 0.75 0.0
-0.845208 0 0.0
-0.845438 0.05 0.0
-0.845667 0.1 0.0
-0.845896 0.15 0.0
-0.833853 0.25 0.0
-0.846126 0.2 0.0
-0.899146 0.85 0.0
-0.904386 0.9 0.0
-0.899584 0.95 0.0
-0.899804 1 0.0
-0.838062 0.35 0.0
[...]
POINT_DATA 10839
VECTORS Velocity float
0.21 0 0.0
0.24 0 0.0
0.2275 0 0.0
0.2475 0 0.0
0.25 0 0.0
0.2475 0 0.0
0 0 0.0
0.0475 0 0.0
0.1275 0 0.0
0.09 0 0.0
0.09 0 0.0
0.1275 0 0.0
0.1875 0 0.0
0.16 0 0.0
0.195557 -2.08507e-05 0.0
0.242841 -2.74532e-05 0.0
0.215776 -2.46509e-05 0.0
0.231406 -2.74791e-05 0.0
0.248724 -2.86014e-05 0.0
0.24 0 0.0
0.24284 -2.56269e-05 0.0
0.24852 -2.68828e-05 0.0
0 0 0.0
0.0622237 -3.64322e-06 0.0
0.0322263 -2.40261e-06 0.0
0.16 0 0.0
0.1875 0 0.0
0.21 0 0.0
0.2275 0 0.0
0.193592 -2.07434e-05 0.0
0.138888 -1.18585e-05 0.0
0 0 0.0
0.0475 0 0.0
0.099842 -8.47215e-06 0.0
0.0622209 -3.59525e-06 0.0
0.0998459 -9.46467e-06 0.0
0.13889 -1.31621e-05 0.0
0.174379 -3.29681e-05 0.0
0.201605 -4.50041e-05 0.0
0.235786 -5.36383e-05 0.0
0.244084 -5.52244e-05 0.0
0.2236 -7.29636e-05 0.0
0.24975 -5.60793e-05 0.0
0.249043 -6.1109e-05 0.0
0.231404 -2.53307e-05 0.0
0.244081 -5.08958e-05 0.0
0 0 0.0
0.0361062 -4.68206e-06 0.0
0.073611 -1.29991e-05 0.0
0.0622456 -1.43423e-05 0.0
0.174372 -2.85823e-05 0.0
0.220163 -3.94208e-05 0.0
0.201596 -3.9288e-05 0.0
0.11555 -1.77198e-05 0.0
0.146678 -2.67927e-05 0.0
0 0 0.0
0.0360884 -3.03389e-06 0.0
0.0693679 -9.56264e-06 0.0
0.0899872 -1.83596e-05 0.0
0.109389 -2.7308e-05 0.0
0.14669 -2.96185e-05 0.0
0.1789 -5.54452e-05 0.0
0.206291 -7.22513e-05 0.0
0.214497 -9.74543e-05 0.0
0.238524 -8.38279e-05 0.0
0.247347 -8.50313e-05 0.0
0.229602 -0.000108667 0.0
0.226325 -6.66914e-05 0.0
0.249981 -8.28194e-05 0.0
0.246425 -7.83322e-05 0.0
0.23668 -7.21405e-05 0.0
0 0 0.0
0.032247 -5.38953e-06 0.0
0.0956922 -3.10549e-05 0.0
0.0694219 -2.34613e-05 0.0
0.17888 -4.68529e-05 0.0
0.206272 -6.19882e-05 0.0
0.127483 -3.6648e-05 0.0
0.165881 -5.83e-05 0.0
0.152331 -4.27601e-05 0.0
0 0 0.0
0.0360821 -4.21743e-06 0.0
0.0622014 -1.27839e-05 0.0
0.0956381 -2.79564e-05 0.0
0.127521 -4.23516e-05 0.0
0.156658 -6.18563e-05 0.0
0.115595 -4.85936e-05 0.0
0.193622 -0.000102842 0.0
0.218135 -0.000129603 0.0
0.240935 -0.000113332 0.0
0.247732 -0.000114468 0.0
0.249996 -0.00011224 0.0
0.234389 -0.000147275 0.0
0.229579 -9.16219e-05 0.0
0.247725 -0.000107445 0.0
0.240919 -0.000100799 0.0
0 0 0.0
0.0344811 -7.39826e-06 0.0
0.103112 -4.74903e-05 0.0
0.0622916 -2.30761e-05 0.0
0.189734 -7.19172e-05 0.0
0.212996 -9.85265e-05 0.0
0.170548 -7.67601e-05 0.0
0.144343 -5.825e-05 0.0
0 0 0.0
0.0399046 -6.94922e-06 0.0
0.099801 -3.76504e-05 0.0
0.0693337 -2.0225e-05 0.0
0.170619 -9.49318e-05 0.0
0.144416 -7.12409e-05 0.0
0.124368 -7.14171e-05 0.0
0.183643 -0.00012128 0.0
0.204123 -0.00014579 0.0
0.222027 -0.000170511 0.0
0.249102 -0.000142904 0.0
0.244017 -0.000151045 0.0
0.24911 -0.000149764 0.0
0.238535 -0.00018811 0.0
0.234354 -0.000122313 0.0
0.244878 -0.000144612 0.0
0 0 0.0
0.0322821 -7.15137e-06 0.0
0.0940608 -4.83028e-05 0.0
0.065199 -2.61752e-05 0.0
0.196711 -0.000102549 0.0
0.217881 -0.000125041 0.0
0.177464 -0.000102072 0.0
0.148712 -7.51348e-05 0.0
0.120349 -5.436e-05 0.0
0 0 0.0
0.0344009 -6.60334e-06 0.0
0.0716644 -2.6973e-05 0.0
0.152416 -0.000104343 0.0
0.127603 -8.75258e-05 0.0
0.18757 -0.000153315 0.0
0.211938 -0.000192553 0.0
0.248593 -0.000173061 0.0
0.225667 -0.00021609 0.0
0.249766 -0.000184362 0.0
0.246457 -0.000189317 0.0
0.242038 -0.000231136 0.0
0.238488 -0.000153146 0.0
0 0 0.0
0.0338559 -6.81842e-06 0.0
0.0999745 -5.90215e-05 0.0
0.0695136 -2.63418e-05 0.0
0.20628 -0.000128415 0.0
0.222416 -0.000149502 0.0
0.190015 -0.000127713 0.0
0.168297 -0.000108941 0.0
0.143045 -8.93294e-05 0.0
0.124226 -6.88192e-05 0.0
0.0971126 -4.8478e-05 0.0
0 0 0.0
0.0360362 -9.00899e-06 0.0
0.0673433 -3.23332e-05 0.0
0.130324 -0.000103212 0.0
0.168475 -0.000150936 0.0
0.199462 -0.000203096 0.0
0.218359 -0.000239004 0.0
0.241982 -0.000185208 0.0
0.249974 -0.000216842 0.0
0.247969 -0.000201747 0.0
0.229052 -0.000267339 0.0
0.244894 -0.000275139 0.0
0.248708 -0.000238961 0.0
0.234444 -0.000177642 0.0
0 0 0.0
0.0361943 -3.90072e-06 0.0
0.122651 -9.66178e-05 0.0
0.0711799 -1.89459e-05 0.0
0.208379 -0.000145763 0.0
0.225139 -0.000171426 0.0
0.198099 -0.000142183 0.0
0.177786 -0.000125904 0.0
0.146589 -0.000105629 0.0
0.119186 -8.31706e-05 0.0
0.0970901 -5.82154e-05 0.0
0 0 0.0
0.0349562 -1.26174e-05 0.0
0.0673117 -4.23048e-05 0.0
0.152301 -0.000154583 0.0
0.178014 -0.000201808 0.0
0.210098 -0.000261739 0.0
0.244834 -0.000216218 0.0
0.249381 -0.000242146 0.0
0.232179 -0.000324873 0.0
0.244134 -0.000323346 0.0
0.249917 -0.00029387 0.0
0.24908 -0.000278914 0.0
0.235903 -0.0001984 0.0
0.212939 -0.000346061 0.0
0 0 0.0
0.0370907 1.59751e-06 0.0
0.141126 -0.000149406 0.0
0.0999352 -4.99528e-05 0.0
0.0665188 -3.09044e-06 0.0
0.213664 -0.000159685 0.0
0.186689 -0.000136462 0.0
0.165179 -0.000125568 0.0
0.122323 -0.000104191 0.0
0.0929221 -7.54572e-05 0.0
0 0 0.0
0.0349221 -1.80164e-05 0.0
0.0642597 -5.79214e-05 0.0
0.165612 -0.000214817 0.0
0.18697 -0.00026616 0.0
0.158169 -0.000229364 0.0
0.247041 -0.000250767 0.0
0.248602 -0.000293539 0.0
0.23099 -0.000389683 0.0
0.240439 -0.000390176 0.0
0.248654 -0.000358173 0.0
0.24017 -0.000222139 0.0
0.229258 -0.000185894 0.0
0.199182 -0.000356708 0.0
0.21859 -0.000433701 0.0
0 0 0.0
0.0345346 7.40634e-06 0.0
0.126215 -0.000126631 0.0
0.0680726 3.25682e-06 0.0
0.0988033 -4.53894e-05 0.0
0.208152 -0.000144957 0.0
0.18987 -0.000131278 0.0
0.168265 -0.000129046 0.0
0.140745 -0.000124574 0.0
0.0954891 -0.00010187 0.0
0 0 0.0
0.0332481 -2.42999e-05 0.0
0.0660857 -8.19531e-05 0.0
0.183262 -0.000347022 0.0
0.159351 -0.000282811 0.0
0.244816 -0.000259948 0.0
0.249512 -0.000343461 0.0
0.235852 -0.000474685 0.0
0.244715 -0.000448642 0.0
0.24922 -0.000401917 0.0
0.238561 -0.000215042 0.0
0.218465 -0.000138548 0.0
0.203106 -0.000465462 0.0
0.223293 -0.000530696 0.0
0 0 0.0
0.0476377 1.29688e-05 0.0
0.12803 -0.000170651 0.0
0.0903848 -3.56413e-05 0.0
0.202722 -0.000114641 0.0
0.178152 -0.000112103 0.0
0.148103 -0.000130616 0.0
0.118871 -0.000132612 0.0
0.0780919 -0.000116633 0.0
0 0 0.0
0.0341954 -3.48853e-05 0.0
0.187902 -0.000480881 0.0
0.160549 -0.000363426 0.0
0.246304 -0.000286189 0.0
0.249771 -0.000408143 0.0
0.239953 -0.000566921 0.0
0.247306 -0.000540068 0.0
0.239741 -0.00020669 0.0
0.227277 -0.000128174 0.0
0.209837 -7.4942e-05 0.0
0.227591 -0.000643841 0.0
0.210264 -0.000611823 0.0
0 0 0.0
0.0476438 5.52835e-06 0.0
0.128221 -0.000257447 0.0
0.0904894 -7.10848e-05 0.0
0.187396 -6.51963e-05 0.0
0.15993 -9.19367e-05 0.0
0.0471495 -6.6123e-05 0.0
0.127382 -0.000133613 0.0
0.0897298 -0.000137975 0.0
0 0 0.0
0.188027 -0.00064011 0.0
0.16074 -0.000507073 0.0
0.247173 -0.000312417 0.0
0.249648 -0.000460149 0.0
0.23989 -0.000697098 0.0
0.247179 -0.000644237 0.0
0.227197 -5.67942e-05 0.0
0.23963 -0.00016986 0.0
0.187411 2.94113e-05 0.0
0.209796 1.60828e-05 0.0
0.22758 -0.000782105 0.0
0.210318 -0.000800435 0.0
0 0 0.0
0.0476857 -2.25494e-05 0.0
0.128464 -0.0004195 0.0
0.090688 -0.000176182 0.0
0.127433 -8.29931e-05 0.0
0.159982 -1.35605e-05 0.0
0.0470592 -6.53742e-05 0.0
0.0897062 -0.000119107 0.0
0 0 0.0
0.18817 -0.000869649 0.0
0.160968 -0.000731769 0.0
0.247022 -0.000309617 0.0
0.249475 -0.000512568 0.0
0.227543 -0.000955321 0.0
0.239734 -0.000941612 0.0
0.247005 -0.000767179 0.0
0.227105 3.07598e-05 0.0
0.239472 -0.000105097 0.0
0.187423 0.000140776 0.0
0.209742 0.000165045 0.0
0.210361 -0.00105091 0.0
0 0 0.0
0.0478109 -7.13127e-05 0.0
0.128828 -0.000732653 0.0
0.0909754 -0.00034817 0.0
0.1275 1.77159e-05 0.0
0.160057 0.000137924 0.0
0.0469861 -4.69893e-05 0.0
0.0897235 -5.06465e-05 0.0
0 0 0.0
0.161228 -0.00106305 0.0
0.188356 -0.00127956 0.0
0.246809 -0.000295587 0.0
0.249228 -0.000571398 0.0
0.239584 -0.0011206 0.0
0.227434 -0.0013212 0.0
0.246752 -0.000913903 0.0
0.239252 -7.76465e-06 0.0
0.226978 0.000154566 0.0
0.187432 0.000361813 0.0
0.209653 0.000379067 0.0
0.210382 -0.00138684 0.0
0 0 0.0
0.048035 -0.000140178 0.0
0.129162 -0.00106303 0.0
0.0914147 -0.000598624 0.0
0.127623 0.000221577 0.0
0.160144 0.000386088 0.0
0 0 0.0
0.0898297 9.04432e-05 0.0
0.046969 -1.03414e-05 0.0
0.188483 -0.00174446 0.0
0.161503 -0.0015187 0.0
0.227302 -0.00161372 0.0
0.246517 -0.000265235 0.0
0.248894 -0.000635324 0.0
0.24649 -0.00104641 0.0
0.239388 -0.0013287 0.0
0.238947 0.000126174 0.0
0.22677 0.000355343 0.0
0.187417 0.000775332 0.0
0.209512 0.000671434 0.0
0.210358 -0.00180204 0.0
0 0 0.0
0.0484421 -0.000245666 0.0
0.0919788 -0.000886594 0.0
0.129651 -0.00155879 0.0
0.127847 0.000597079 0.0
0.160238 0.000752455 0.0
0 0 0.0
0.0470602 5.53993e-05 0.0
0.0900299 0.000285588 0.0
0.188558 -0.00216175 0.0
0.161799 -0.00210835 0.0
0.227112 -0.00195798 0.0
0.238899 -0.00177109 0.0
0.246121 -0.000219784 0.0
0.248445 -0.000701987 0.0
0.246167 -0.00119922 0.0
0.238538 0.000298722 0.0
0.226475 0.000618148 0.0
0.187356 0.00110714 0.0
0.209298 0.00104963 0.0
0.210266 -0.00231752 0.0
0 0 0.0
0.0490582 -0.000358757 0.0
0.130421 -0.00227171 0.0
0.0929738 -0.00132418 0.0
0.128072 0.000969702 0.0
0.16033 0.00124359 0.0
0.0472964 0.000140488 0.0
0 0 0.0
0.0904711 0.000601444 0.0
0.162107 -0.00282284 0.0
0.188625 -0.00301305 0.0
0.226662 -0.00262279 0.0
0.238387 -0.0021514 0.0
0.245622 -0.00142827 0.0
0.245331 -0.00012442 0.0
0.247862 -0.000784526 0.0
0.238001 0.000511784 0.0
0.225911 0.00107387 0.0
0.187205 0.00180298 0.0
0.208983 0.00151788 0.0
0.210091 -0.00293715 0.0
0 0 0.0
0.0499167 -0.000500302 0.0
0.0941498 -0.00175791 0.0
0.162452 -0.00364164 0.0
0.131092 -0.00286783 0.0
0.128454 0.00151171 0.0
0.160388 0.00172033 0.0
0.0477222 0.00025182 0.0
0 0 0.0
0.0910154 0.000905505 0.0
0.209852 -0.00353781 0.0
0.188595 -0.00360619 0.0
0.237878 -0.00250318 0.0
0.226155 -0.00321572 0.0
0.244577 -0.00180141 0.0
0.24712 -0.000872306 0.0
0.244755 -6.11012e-05 0.0
0.237313 0.000761133 0.0
0.225424 0.00140757 0.0
0.187023 0.00229242 0.0
0.16051 0.00257759 0.0
0.20855 0.00207009 0.0
0 0 0.0
0.0955448 -0.00218026 0.0
0.051064 -0.000652664 0.0
0.162765 -0.00437902 0.0
0.132308 -0.00372974 0.0
0.128982 0.00213977 0.0
0 0 0.0
0.0483606 0.000368197 0.0
0.092007 0.00133567 0.0
0.209529 -0.00419821 0.0
0.188503 -0.00472023 0.0
0.237256 -0.0028719 0.0
0.225514 -0.00387848 0.0
0.243831 -0.00203775 0.0
0.246188 -0.000972619 0.0
0.244095 7.78651e-06 0.0
0.160572 0.00319819 0.0
0.208059 0.00260343 0.0
0.236439 0.00104308 0.0
0.22484 0.00177723 0.0
0.186729 0.00302711 0.0
0 0 0.0
0.0523481 -0.000778504 0.0
0.0973386 -0.00264303 0.0
0.163211 -0.00531905 0.0
0.133592 -0.004491 0.0
0.0932174 0.00175643 0.0
0.129788 0.00290369 0.0
0 0 0.0
0.049289 0.000508009 0.0
0.209017 -0.0050608 0.0
0.188335 -0.00569066 0.0
0.236319 -0.00339449 0.0
0.224692 -0.00459885 0.0
0.243 -0.00228886 0.0
0.245072 -0.0010856 0.0
0.242539 0.000159182 0.0
0.160734 0.00404246 0.0
0.235384 0.0013532 0.0
0.20747 0.0031822 0.0
0.223635 0.00245855 0.0
0.18623 0.00403217 0.0
0 0 0.0
0.0997452 -0.00310295 0.0
0.0540469 -0.000910228 0.0
0.163921 -0.00647985 0.0
0.135189 -0.00522706 0.0
0.0945674 0.00213387 0.0
0.130742 0.00356768 0.0
0 0 0.0
0.0503378 0.000632647 0.0
0.188151 -0.00671024 0.0
0.208382 -0.00598518 0.0
0.235176 -0.00396503 0.0
0.241721 -0.00264474 0.0
0.223696 -0.00538179 0.0
0.243718 -0.00121305 0.0
0.241175 0.000257578 0.0
0.234103 0.00168022 0.0
0.242182 -0.00212757 0.0
0.160941 0.00487017 0.0
0.22248 0.00300617 0.0
0.206331 0.00413006 0.0
0.185858 0.00465583 0.0
0 0 0.0
0.102005 -0.00343322 0.0
0.0559278 -0.0010408 0.0
0.164493 -0.0072247 0.0
0.137072 -0.00590834 0.0
0.0963285 0.0024883 0.0
0.131734 0.00411556 0.0
0 0 0.0
0.05162 0.000722704 0.0
0.187959 -0.00774124 0.0
0.20761 -0.00695834 0.0
0.23382 -0.00457215 0.0
0.222514 -0.00621507 0.0
0.239452 -0.00321626 0.0
0.241844 -0.000492827 0.0
0.237023 0.00115496 0.0
0.227732 0.00273037 0.0
0.241249 -0.00143299 0.0
0.161289 0.0056674 0.0
0.213978 0.00414672 0.0
0.200723 0.0050756 0.0
0.185221 0.00571351 0.0
0 0 0.0
0.104764 -0.00373572 0.0
0.0579593 -0.00113105 0.0
0.165427 -0.00809549 0.0
0.139262 -0.00648692 0.0
0.133395 0.00476516 0.0
0.0983791 0.0027807 0.0
0 0 0.0
0.0532496 0.000807665 0.0
0.187813 -0.00874902 0.0
0.206741 -0.00795441 0.0
0.237594 -0.00363687 0.0
0.22115 -0.00708171 0.0
0.232247 -0.0052275 0.0
0.238615 0.000407491 0.0
0.231575 0.00223588 0.0
0.220154 0.00394463 0.0
0.239276 -0.00160615 0.0
0.161775 0.00635438 0.0
0.204459 0.00539325 0.0
0.18469 0.00650094 0.0
0 0 0.0
0.0599678 -0.00119066 0.0
0.107743 -0.00394246 0.0
0.141394 -0.00686456 0.0
0.187773 -0.00967903 0.0
0.16658 -0.00885252 0.0
0.135107 0.00520416 0.0
0.100634 0.00299013 0.0
0.0548143 0.000887013 0.0
0 0 0.0
0.219892 -0.00781777 0.0
0.205811 -0.00893891 0.0
0.235972 -0.00399113 0.0
0.230448 -0.00591222 0.0
0.21847 0.00450624 0.0
0.236633 0.000499519 0.0
0.229676 0.00257841 0.0
0.237047 -0.00180207 0.0
0.184238 0.00718133 0.0
0.162647 0.00700187 0.0
0.202812 0.00629964 0.0
0 0 0.0
0.0622365 -0.00119488 0.0
0.111209 -0.00404512 0.0
0.144124 -0.00717512 0.0
0.187844 -0.0103219 0.0
0.168376 -0.00955891 0.0
0.137068 0.00547151 0.0
0.103309 0.00309607 0.0
0.0565257 0.000907492 0.0
0 0 0.0
0.139308 0.00553541 0.0
0.21855 -0.00853818 0.0
0.204561 -0.0101446 0.0
0.227565 -0.00690135 0.0
0.234204 -0.00435745 0.0
0.215916 0.00520392 0.0
0.227537 0.00290268 0.0
0.234392 0.000564028 0.0
0.234543 -0.00202492 0.0
0.183905 0.00772076 0.0
0.163653 0.00730336 0.0
0.201477 0.00687541 0.0
0 0 0.0
0.0644758 -0.00117584 0.0
0.114487 -0.00404048 0.0
0.147099 -0.00731109 0.0
0.188121 -0.0110003 0.0
0.170185 -0.00992543 0.0
0.0581303 0.000874704 0.0
0.10582 0.00304714 0.0
0 0 0.0
0.14127 0.00543073 0.0
0.216835 -0.00937102 0.0
0.203674 -0.0109445 0.0
0.225285 -0.00758835 0.0
0.231703 -0.00484983 0.0
0.214232 0.00553278 0.0
0.225182 0.00317527 0.0
0.231789 -0.00228338 0.0
0.230671 0.000600489 0.0
0.183758 0.00796293 0.0
0.164894 0.00734457 0.0
0.200166 0.00729495 0.0
0 0 0.0
0.0667162 -0.00114773 0.0
0.117727 -0.00395257 0.0
0.150718 -0.00725788 0.0
0.188814 -0.0115537 0.0
0.202892 -0.0115723 0.0
0.17229 -0.01007 0.0
0.0597202 0.0008048 0.0
0.108301 0.00287761 0.0
0 0 0.0
0.143689 0.00509159 0.0
0.214447 -0.0103369 0.0
0.223339 -0.00811826 0.0
0.228992 -0.00534163 0.0
0.229561 -0.00250319 0.0
0.212503 0.00575853 0.0
0.222627 0.00334565 0.0
0.227822 0.00054614 0.0
0.166412 0.00709382 0.0
0.183767 0.00803318 0.0
0.198945 0.00747678 0.0
0 0 0.0
0.0688789 -0.00113778 0.0
0.120935 -0.00377814 0.0
0.154017 -0.0070517 0.0
0.18946 -0.0117036 0.0
0.202307 -0.0119814 0.0
0.174645 -0.00999406 0.0
0.0611895 0.000698981 0.0
0.11069 0.00259038 0.0
0 0 0.0
0.167693 0.00668873 0.0
0.112825 0.0022136 0.0
0.146422 0.00445203 0.0
0.212721 -0.0108924 0.0
0.221352 -0.00857166 0.0
0.224728 -0.00602991 0.0
0.227242 -0.00274373 0.0
0.225478 0.000443263 0.0
0.210391 0.00584413 0.0
0.218825 0.00335467 0.0
0.184087 0.00766855 0.0
0.198021 0.00738926 0.0
0.211374 -0.0111745 0.0
0 0 0.0
0.0708779 -0.00106983 0.0
0.157319 -0.00671883 0.0
0.123986 -0.0035741 0.0
0.201944 -0.0121474 0.0
0.190809 -0.0116306 0.0
0.177173 -0.00972105 0.0
0.0625635 0.000575969 0.0
0 0 0.0
0.184496 0.00716205 0.0
0.169453 0.00591178 0.0
0.148716 0.00368592 0.0
0.0634622 0.000478548 0.0
0.114689 0.00172932 0.0
0.218873 -0.00906146 0.0
0.222391 -0.00637327 0.0
0.224026 -0.0031116 0.0
0.221574 -0.00342856 0.0
0.223069 0.000261416 0.0
0.208332 0.00564047 0.0
0.216066 0.00310289 0.0
0.197241 0.00705202 0.0
0.210144 -0.0113279 0.0
0.0726235 -0.00102389 0.0
0 0 0.0
0.160028 -0.00639288 0.0
0.126852 -0.00335787 0.0
0.201808 -0.0120791 0.0
0.191841 -0.0114348 0.0
0.17981 -0.00931026 0.0
0 0 0.0
0.185133 0.00621879 0.0
0.171517 0.00465657 0.0
0.150394 0.00295248 0.0
0.0642266 0.000319567 0.0
0.116142 0.00122701 0.0
0.215449 -0.00952084 0.0
0.220045 -0.0066834 0.0
0.219158 -0.00378436 0.0
0.21847 -0.000312102 0.0
0.20641 0.00511665 0.0
0.21335 0.00258661 0.0
0.196326 0.00602482 0.0
0.208856 -0.0113592 0.0
0 0 0.0
0.0744426 -0.000958257 0.0
0.163089 -0.00601698 0.0
0.12928 -0.00319074 0.0
0.18243 -0.00883246 0.0
0.20192 -0.0118386 0.0
0.193682 -0.0109084 0.0
0 0 0.0
0 0 0.0
0.185923 0.00496884 0.0
0.1732 0.00339417 0.0
0.152121 0.00200339 0.0
0.117189 0.00070815 0.0
0.0647026 0.000152528 0.0
0.213236 -0.00970942 0.0
0.217106 -0.00706266 0.0
0.211285 0.0019973 0.0
0.216031 -0.00431786 0.0
0.215416 -0.000944133 0.0
0.204684 0.00424408 0.0
0.195876 0.00484842 0.0
0.211589 -0.00980562 0.0
0.207778 -0.0112594 0.0
0.0761976 -0.000931281 0.0
0.131797 -0.00304954 0.0
0.166016 -0.00571797 0.0
0.184548 -0.00847617 0.0
0.202215 -0.0115025 0.0
0.194913 -0.0105914 0.0
0 0 0.0
0 0 0.0
0.174286 0.00234711 0.0
0.186875 0.00312989 0.0
0.117728 0.000260757 0.0
0.153555 0.000913519 0.0
0.0648811 1.00472e-05 0.0
0.213168 -0.00759014 0.0
0.21312 -0.00495546 0.0
0.195573 0.0033904 0.0
0.209341 0.00123227 0.0
0.213151 -0.00155977 0.0
0.202658 0.00260135 0.0
0.210148 -0.00988887 0.0
0.206718 -0.0110779 0.0
0.202655 -0.0111949 0.0
0.0779027 -0.000971442 0.0
0.134235 -0.00301742 0.0
0.169093 -0.00556701 0.0
0.186995 -0.00812209 0.0
0.196926 -0.0101178 0.0
0 0 0.0
0 0 0.0
0.175597 0.000755649 0.0
0.187611 0.00153761 0.0
0.117989 -0.000257353 0.0
0.154316 1.15574e-05 0.0
0.0648316 -0.000119433 0.0
0.211037 -0.00227092 0.0
0.210493 -0.00568211 0.0
0.210807 -0.00801086 0.0
0.195386 0.00178002 0.0
0.207164 5.71607e-05 0.0
0.201452 0.00110477 0.0
0.188138 -3.57672e-05 0.0
0.208015 -0.0101312 0.0
0 0 0.0
0.206143 -0.0110792 0.0
0.198545 -0.00994598 0.0
0.203178 -0.0110256 0.0
0.0795474 -0.00102697 0.0
0.171317 -0.00561646 0.0
0.13685 -0.00317361 0.0
0.189786 -0.00804829 0.0
0 0 0.0
0 0 0.0
0 0 0.0
0 0 0.0
0 0 0.0
0.064558 -0.000226298 0.0
0.154638 -0.000821049 0.0
0.176308 -0.000507835 0.0
0.117875 -0.000630396 0.0
0.208564 -0.00330747 0.0
0.208204 -0.00651332 0.0
0.20874 -0.00853008 0.0
0.200556 -0.000209015 0.0
0.195208 9.41644e-05 0.0
0.204497 -0.00184562 0.0
0.195047 -0.00131601 0.0
0.188349 -0.00114547 0.0
0.206795 -0.0105131 0.0
0.205742 -0.0112436 0.0
0 0 0.0
-0.000125919 0.000100531 0.0
0 0 0.0
-0.00077004 0.0076551 0.0
0.203752 -0.0111222 0.0
0.199678 -0.0100158 0.0
0.0814925 -0.00115396 0.0
0.173774 -0.00590484 0.0
0.139295 -0.00350471 0.0
0.191977 -0.00833688 0.0
0 0 0.0
0 0 0.0
0 0 0.0
-0.000678918 0.00534223 0.0
-0.000366963 0.000843383 0.0
-0.000842688 0.000841403 0.0
0 0 0.0
0.0640405 -0.000329204 0.0
0.154562 -0.00143168 0.0
0.176583 -0.00164109 0.0
0.117295 -0.00101299 0.0
0.206419 -0.00447551 0.0
0.206219 -0.00745056 0.0
0.206981 -0.00916041 0.0
0.199774 -0.00154346 0.0
0.203239 -0.00302503 0.0
0.194789 -0.00264168 0.0
0.188346 -0.00283559 0.0
0.205779 -0.0110949 0.0
0.205626 -0.0115687 0.0
0.20499 -0.0116451 0.0
0 0 0.0
-0.000835965 0.000362025 0.0
0 0 0.0
0 0 0.0
-0.00253095 0.0143587 0.0
-0.00288627 0.0110726 0.0
0.203651 -0.0113236 0.0
0.20106 -0.01045 0.0
0.141631 -0.00398085 0.0
0.0835173 -0.0013711 0.0
0.176222 -0.00652215 0.0
0.193963 -0.00899939 0.0
0 0 0.0
-0.001754 0.00417315 0.0
-0.00241474 0.00736722 0.0
-0.00182963 0.00257836 0.0
-0.00263099 0.00179821 0.0
0 0 0.0
0.0633816 -0.000414187 0.0
0.154112 -0.0020575 0.0
0.176452 -0.00262404 0.0
0.116483 -0.00130788 0.0
0.204547 -0.00570566 0.0
0.204532 -0.00848605 0.0
0.205484 -0.00995514 0.0
0.198613 -0.00370889 0.0
0.202074 -0.00420404 0.0
0.194374 -0.00409158 0.0
0.176018 -0.00348541 0.0
0.188076 -0.00401703 0.0
0.205063 -0.0117347 0.0
0.205248 -0.0122034 0.0
0.204623 -0.0121345 0.0
0 0 0.0
-0.0026185 0.000702586 0.0
0 0 0.0
0 0 0.0
0 0 0.0
0 0 0.0
-0.00577816 0.011294 0.0
-0.000591541 0.0112934 0.0
-0.00235012 0.0169535 0.0
-0.00567565 0.0207946 0.0
-0.00542319 0.0160827 0.0
0 0 0.0
5.4975e-05 0.0134744 0.0
0.202585 -0.0116172 0.0
0.195518 -0.00985918 0.0
0 0 0.0
0.0861939 -0.00173564 0.0
0.144558 -0.00473138 0.0
0.179135 -0.00781387 0.0
0 0 0.0
0 0 0.0
-0.00453356 0.00702424 0.0
-0.00466993 0.00444867 0.0
-0.00551875 0.00265441 0.0
0 0 0.0
0.0625237 -0.000488894 0.0
0.153181 -0.00265727 0.0
0.115398 -0.00154975 0.0
0.17536 -0.00405513 0.0
0.202944 -0.00698599 0.0
0.203404 -0.0093269 0.0
0.20418 -0.0109411 0.0
0.197919 -0.00494524 0.0
0.200781 -0.00566318 0.0
0.19379 -0.00538542 0.0
0.187618 -0.00478131 0.0
0.205066 -0.0128841 0.0
0.204381 -0.012554 0.0