# vtk DataFile Version 3.0
Mesh NS-CD Problem
ASCII
DATASET UNSTRUCTURED_GRID
POINTS 10839 float
-2 0.3 0.0
-2 0.4 0.0
-2 0.35 0.0
-2 0.45 0.0
-2 0.5 0.0
-2 0.55 0.0
-2 0 0.0
-2 0.05 0.0
-2 0.85 0.0
-2 0.9 0.0
-2 0.1 0.0
-2 0.15 0.0
-2 0.25 0.0
-2 0.2 0.0
-1.96653 0.266667 0.0
-1.96524 0.415385 0.0
-1.96485 0.315 0.0
-1.96348 0.363636 0.0
-1.96414 0.464286 0.0
-2 0.6 0.0
-1.96538 0.584615 0.0
-1.96538 0.538462 0.0
-1.94979 0 0.0
-1.96653 0.0666666 0.0
-1.93306 0.0333333 0.0
-2 0.8 0.0
-2 0.75 0.0
-2 0.7 0.0
-2 0.65 0.0
-1.96249 0.7375 0.0
-1.96666 0.833333 0.0
-2 1 0.0
-2 0.95 0.0
-1.96249 0.8875 0.0
-1.96666 0.933333 0.0
-1.96234 0.1125 0.0
-1.96653 0.166667 0.0
-1.93724 0.225 0.0
-1.92971 0.28 0.0
-1.93048 0.380769 0.0
-1.93048 0.423077 0.0
-1.89958 0.3375 0.0
-1.9292 0.484203 0.0
-1.92117 0.530907 0.0
-1.96363 0.636364 0.0
-1.93076 0.576923 0.0
-1.89958 0 0.0
-1.88703 0.0375 0.0
-1.90963 0.08 0.0
-1.86611 0.0666666 0.0
-1.93749 0.775 0.0
-1.93635 0.672727 0.0
-1.92999 0.72 0.0
-1.93332 0.866667 0.0
-1.92856 0.821429 0.0
-1.94999 1 0.0
-1.92499 0.9625 0.0
-1.92499 0.925 0.0
-1.89998 0.9 0.0
-1.89958 0.125 0.0
-1.92827 0.178571 0.0
-1.89958 0.233333 0.0
-1.89045 0.290909 0.0
-1.86096 0.311538 0.0
-1.89241 0.392857 0.0
-1.89334 0.448489 0.0
-1.85655 0.357143 0.0
-1.89614 0.653846 0.0
-1.89427 0.504121 0.0
-1.8952 0.559753 0.0
-1.89614 0.615385 0.0
-1.84937 0 0.0
-1.83264 0.0333333 0.0
-1.85655 0.107143 0.0
-1.81172 0.075 0.0
-1.89998 0.766667 0.0
-1.89089 0.709091 0.0
-1.87498 0.85 0.0
-1.85998 0.79 0.0
-1.88748 0.8125 0.0
-1.89998 1 0.0
-1.88748 0.9625 0.0
-1.86664 0.933333 0.0
-1.85712 0.892857 0.0
-1.87448 0.15 0.0
-1.86611 0.194444 0.0
-1.83264 0.133333 0.0
-1.83264 0.2625 0.0
-1.82068 0.321429 0.0
-1.85664 0.404762 0.0
-1.85674 0.452381 0.0
-1.85683 0.5 0.0
-1.81184 0.375 0.0
-1.85712 0.642857 0.0
-1.85693 0.547619 0.0
-1.85702 0.595238 0.0
-1.79917 0 0.0
-1.78482 0.0357143 0.0
-1.79917 0.116667 0.0
-1.76569 0.0666666 0.0
-1.85452 0.745455 0.0
-1.82689 0.692308 0.0
-1.81815 0.781818 0.0
-1.82497 0.825 0.0
-1.84997 1 0.0
-1.8333 0.958333 0.0
-1.81247 0.8875 0.0
-1.81247 0.925 0.0
-1.81742 0.218182 0.0
-1.82427 0.175 0.0
-1.77634 0.145455 0.0
-1.79144 0.242308 0.0
-1.78482 0.285714 0.0
-1.77469 0.332653 0.0
-1.81215 0.529762 0.0
-1.81194 0.422619 0.0
-1.81203 0.470238 0.0
-1.76714 0.392857 0.0
-1.81234 0.625 0.0
-1.79732 0.571429 0.0
-1.74896 0 0.0
-1.73222 0.0333333 0.0
-1.75398 0.105 0.0
-1.71883 0.07 0.0
-1.79227 0.730769 0.0
-1.78007 0.679121 0.0
-1.75765 0.769231 0.0
-1.78178 0.818182 0.0
-1.78996 0.86 0.0
-1.79996 1 0.0
-1.78568 0.964286 0.0
-1.76663 0.922222 0.0
-1.76569 0.1875 0.0
-1.73222 0.15 0.0
-1.74896 0.25 0.0
-1.73714 0.304762 0.0
-1.76743 0.537202 0.0
-1.72869 0.343878 0.0
-1.76732 0.485119 0.0
-1.76723 0.440476 0.0
-1.72243 0.410714 0.0
-1.76757 0.607143 0.0
-1.69875 0 0.0
-1.68369 0.035 0.0
-1.69875 0.1125 0.0
-1.66528 0.075 0.0
-1.74341 0.708974 0.0
-1.73324 0.665934 0.0
-1.70441 0.74478 0.0
-1.71423 0.785714 0.0
-1.72303 0.826923 0.0
-1.74541 0.854545 0.0
-1.74541 0.890909 0.0
-1.74996 1 0.0
-1.73745 0.9625 0.0
-1.71359 0.927273 0.0
-1.68716 0.153846 0.0
-1.7131 0.214286 0.0
-1.70725 0.275 0.0
-1.69712 0.321939 0.0
-1.72279 0.589286 0.0
-1.72261 0.5 0.0
-1.7227 0.544643 0.0
-1.6827 0.355102 0.0
-1.67773 0.428571 0.0
-1.70763 0.464286 0.0
-1.70369 0.62449 0.0
-1.64854 0 0.0
-1.63181 0.0375 0.0
-1.64137 0.142857 0.0
-1.61764 0.0769231 0.0
-1.69458 0.703846 0.0
-1.67471 0.657437 0.0
-1.66143 0.727637 0.0
-1.67125 0.768571 0.0
-1.67851 0.821429 0.0
-1.68841 0.861538 0.0
-1.70904 0.890909 0.0
-1.69995 1 0.0
-1.68176 0.963636 0.0
-1.67267 0.927273 0.0
-1.65427 0.187143 0.0
-1.66718 0.231429 0.0
-1.66554 0.3 0.0
-1.67802 0.571429 0.0
-1.67792 0.523809 0.0
-1.6367 0.366327 0.0
-1.63682 0.423469 0.0
-1.62568 0.502976 0.0
-1.6629 0.470238 0.0
-1.65254 0.618367 0.0
-1.6059 0.307143 0.0
-1.59833 0 0.0
-1.58288 0.0384615 0.0
-1.60563 0.169643 0.0
-1.58179 0.112271 0.0
-1.56964 0.0714286 0.0
-1.64574 0.690385 0.0
-1.62827 0.751429 0.0
-1.63371 0.791071 0.0
-1.64279 0.857143 0.0
-1.65378 0.896154 0.0
-1.64994 1 0.0
-1.6363 0.963636 0.0
-1.61916 0.930769 0.0
-1.61345 0.209107 0.0
-1.62126 0.248571 0.0
-1.56989 0.196429 0.0
-1.63324 0.553571 0.0
-1.58846 0.535714 0.0
-1.59408 0.361905 0.0
-1.59161 0.402211 0.0
-1.58832 0.464286 0.0
-1.61504 0.598581 0.0
-1.59683 0.64359 0.0
-1.57899 0.274107 0.0
-1.56176 0.322381 0.0
-1.54812 0 0.0
-1.53378 0.0357143 0.0
-1.54593 0.147619 0.0
-1.53385 0.0732143 0.0
-1.53393 0.110714 0.0
-1.58522 0.704286 0.0
-1.58709 0.745 0.0
-1.58896 0.785714 0.0
-1.60695 0.830357 0.0
-1.60707 0.892857 0.0
-1.59993 1 0.0
-1.58454 0.965385 0.0
-1.57135 0.928571 0.0
-1.55209 0.241071 0.0
-1.5291 0.198214 0.0
-1.56936 0.570918 0.0
-1.54369 0.517857 0.0
-1.5464 0.380952 0.0
-1.54564 0.427721 0.0
-1.54488 0.47449 0.0
-1.55026 0.606122 0.0
-1.54222 0.677143 0.0
-1.52943 0.282857 0.0
-1.52143 0.33619 0.0
-1.49792 0 0.0
-1.49802 0.05 0.0
-1.49822 0.15 0.0
-1.49312 0.1 0.0
-1.5423 0.717143 0.0
-1.54419 0.767857 0.0
-1.54727 0.819048 0.0
-1.57122 0.861905 0.0
-1.53553 0.914286 0.0
-1.54992 1 0.0
-1.53563 0.964286 0.0
-1.49842 0.25 0.0
-1.48831 0.2 0.0
-1.5214 0.558929 0.0
-1.49891 0.5 0.0
-1.49871 0.4 0.0
-1.47631 0.45 0.0
-1.49911 0.6 0.0
-1.49921 0.65 0.0
-1.49931 0.7 0.0
-1.48111 0.35 0.0
-1.48351 0.3 0.0
-1.44771 0 0.0
-1.44782 0.05 0.0
-1.44804 0.15 0.0
-1.44793 0.1 0.0
-1.49941 0.75 0.0
-1.49951 0.8 0.0
-1.49981 0.95 0.0
-1.49961 0.85 0.0
-1.49971 0.9 0.0
-1.49991 1 0.0
-1.44826 0.25 0.0
-1.43815 0.2 0.0
-1.47151 0.55 0.0
-1.44881 0.5 0.0
-1.44859 0.4 0.0
-1.42619 0.45 0.0
-1.44913 0.65 0.0
-1.44902 0.6 0.0
-1.44935 0.75 0.0
-1.44924 0.7 0.0
-1.43972 0.35 0.0
-1.43336 0.3 0.0
-1.3975 0 0.0
-1.39762 0.05 0.0
-1.39786 0.15 0.0
-1.39274 0.1 0.0
-1.44957 0.85 0.0
-1.44946 0.8 0.0
-1.4523 0.95 0.0
-1.44968 0.9 0.0
-1.4499 1 0.0
-1.3981 0.25 0.0
-1.38798 0.2 0.0
-1.42141 0.55 0.0
-1.3987 0.5 0.0
-1.39834 0.35 0.0
-1.37845 0.4 0.0
-1.37607 0.45 0.0
-1.40784 0.65 0.0
-1.39894 0.6 0.0
-1.41185 0.75 0.0
-1.39918 0.7 0.0
-1.38322 0.3 0.0
-1.34729 0 0.0
-1.34492 0.05 0.0
-1.34018 0.15 0.0
-1.34255 0.1 0.0
-1.40707 0.85 0.0
-1.39941 0.8 0.0
-1.39977 0.95 0.0
-1.39965 0.9 0.0
-1.39989 1 0.0
-1.33781 0.2 0.0
-1.33544 0.25 0.0
-1.37131 0.55 0.0
-1.34859 0.5 0.0
-1.33833 0.4 0.0
-1.3307 0.35 0.0
-1.32595 0.45 0.0
-1.34885 0.6 0.0
-1.36655 0.65 0.0
-1.36179 0.75 0.0
-1.34911 0.7 0.0
-1.33307 0.3 0.0
-1.29708 0 0.0
-1.29722 0.05 0.0
-1.2975 0.15 0.0
-1.29236 0.1 0.0
-1.35703 0.85 0.0
-1.34937 0.8 0.0
-1.34988 1 0.0
-1.34962 0.9 0.0
-1.35226 0.95 0.0
-1.28528 0.25 0.0
-1.28764 0.2 0.0
-1.28931 0.35 0.0
-1.32121 0.55 0.0
-1.29848 0.5 0.0
-1.28709 0.45 0.0
-1.2982 0.4 0.0
-1.29876 0.6 0.0
-1.31647 0.65 0.0
-1.29918 0.75 0.0
-1.29904 0.7 0.0
-1.28292 0.3 0.0
-1.24687 0 0.0
-1.24702 0.05 0.0
-1.24717 0.1 0.0
-1.24732 0.15 0.0
-1.29946 0.85 0.0
-1.29932 0.8 0.0
-1.29987 1 0.0
-1.29974 0.95 0.0
-1.30462 0.9 0.0
-1.24762 0.25 0.0
-1.23747 0.2 0.0
-1.24792 0.35 0.0
-1.22807 0.4 0.0
-1.27111 0.55 0.0
-1.24837 0.5 0.0
-1.24822 0.45 0.0
-1.24867 0.6 0.0
-1.26639 0.65 0.0
-1.26167 0.75 0.0
-1.24897 0.7 0.0
-1.23277 0.3 0.0
-1.19667 0 0.0
-1.19683 0.05 0.0
-1.18964 0.15 0.0
-1.19198 0.1 0.0
-1.25695 0.85 0.0
-1.24927 0.8 0.0
-1.25223 0.95 0.0
-1.24987 1 0.0
-1.24957 0.9 0.0
-1.1873 0.2 0.0
-1.18496 0.25 0.0
-1.18028 0.35 0.0
-1.17794 0.4 0.0
-1.1981 0.45 0.0
-1.19842 0.55 0.0
-1.19826 0.5 0.0
-1.19858 0.6 0.0
-1.19874 0.65 0.0
-1.19906 0.75 0.0
-1.1989 0.7 0.0
-1.18262 0.3 0.0
-1.14646 0 0.0
-1.14663 0.05 0.0
-1.1418 0.1 0.0
-1.13713 0.2 0.0
-1.14697 0.15 0.0
-1.20691 0.85 0.0
-1.20926 0.8 0.0
-1.20221 0.95 0.0
-1.19986 1 0.0
-1.20456 0.9 0.0
-1.13997 0.3 0.0
-1.14731 0.25 0.0
-1.13781 0.4 0.0
-1.13014 0.35 0.0
-1.12548 0.45 0.0
-1.14815 0.5 0.0
-1.15962 0.55 0.0
-1.14849 0.6 0.0
-1.15745 0.65 0.0
-1.16155 0.75 0.0
-1.14917 0.8 0.0
-1.14883 0.7 0.0
-1.09625 0 0.0
-1.09661 0.1 0.0
-1.09393 0.05 0.0
-1.09697 0.2 0.0
-1.08929 0.15 0.0
-1.15687 0.85 0.0
-1.14985 1 0.0
-1.15219 0.95 0.0
-1.14951 0.9 0.0
-1.09733 0.3 0.0
-1.08465 0.25 0.0
-1.09769 0.4 0.0
-1.08 0.35 0.0
-1.08661 0.45 0.0
-1.09804 0.5 0.0
-1.12082 0.55 0.0
-1.10916 0.8 0.0
-1.10629 0.7 0.0
-1.0984 0.6 0.0
-1.11616 0.65 0.0
-1.11149 0.75 0.0
-1.04604 0 0.0
-1.04623 0.05 0.0
-1.04642 0.1 0.0
-1.0468 0.2 0.0
-1.03911 0.15 0.0
-1.09948 0.9 0.0
-1.0993 0.85 0.0
-1.09984 1 0.0
-1.09966 0.95 0.0
-1.04718 0.3 0.0
-1.03449 0.25 0.0
-1.04756 0.4 0.0
-1.02986 0.35 0.0
-1.04775 0.45 0.0
-1.04794 0.5 0.0
-1.04813 0.55 0.0
-1.05911 0.8 0.0
-1.04831 0.6 0.0
-1.06376 0.7 0.0
-1.0485 0.65 0.0
-1.04888 0.75 0.0
-0.995833 0 0.0
-0.991231 0.1 0.0
-0.996033 0.05 0.0
-0.986629 0.2 0.0
-0.98893 0.15 0.0
-1.05447 0.9 0.0
-1.04926 0.85 0.0
-1.04983 1 0.0
-1.04964 0.95 0.0
-0.984328 0.25 0.0
-0.99703 0.3 0.0
-0.997429 0.4 0.0
-0.997628 0.45 0.0
-0.979726 0.35 0.0
-0.997827 0.5 0.0
-0.998027 0.55 0.0
-0.998226 0.6 0.0
-0.961416 0.475 0.0
-1.00907 0.8 0.0
-0.998426 0.65 0.0
-0.998625 0.7 0.0
-1.01138 0.75 0.0
-0.945625 0 0.0
-0.946044 0.1 0.0
-0.943334 0.05 0.0
-0.946463 0.2 0.0
-0.938752 0.15 0.0
-1.00444 0.9 0.0
-1.00675 0.85 0.0
-0.999821 1 0.0
-1.00213 0.95 0.0
-0.93417 0.25 0.0
-0.946881 0.3 0.0
-0.9473 0.4 0.0
-0.929588 0.35 0.0
-0.925005 0.45 0.0
-0.960371 0.525 0.0
-0.959325 0.575 0.0
-0.958279 0.625 0.0
-0.922714 0.5 0.0
-0.959017 0.8 0.0
-0.957233 0.675 0.0
-0.952999 0.7125 0.0
-0.948766 0.75 0.0
-0.895417 0 0.0
-0.895855 0.1 0.0
-0.893136 0.05 0.0
-0.896294 0.2 0.0
-0.888573 0.15 0.0
-0.949184 0.85 0.0
-0.954415 0.9 0.0
-0.949812 1 0.0
-0.949603 0.95 0.0
-0.884011 0.25 0.0
-0.896733 0.3 0.0
-0.874887 0.45 0.0
-0.879449 0.35 0.0
-0.897171 0.4 0.0
-0.920423 0.55 0.0
-0.918132 0.6 0.0
-0.915841 0.65 0.0
-0.872606 0.5 0.0
-0.908968 0.8 0.0
-0.91355 0.7 0.0
-0.898707 0.75 0.0
-0.845208 0 0.0
-0.845438 0.05 0.0
-0.845667 0.1 0.0
-0.845896 0.15 0.0
-0.833853 0.25 0.0
-0.846126 0.2 0.0
-0.899146 0.85 0.0
-0.904386 0.9 0.0
-0.899584 0.95 0.0
-0.899804 1 0.0
-0.838062 0.35 0.0
[...]
POINT_DATA 10839
VECTORS Velocity float
0.21 0 0.0
0.24 0 0.0
0.2275 0 0.0
0.2475 0 0.0
0.25 0 0.0
0.2475 0 0.0
0 0 0.0
0.0475 0 0.0
0.1275 0 0.0
0.09 0 0.0
0.09 0 0.0
0.1275 0 0.0
0.1875 0 0.0
0.16 0 0.0
0.195557 -2.4096e-05 0.0
0.242841 -3.27681e-05 0.0
0.215776 -2.86389e-05 0.0
0.231406 -3.22525e-05 0.0
0.248725 -3.48731e-05 0.0
0.24 0 0.0
0.24284 -3.26895e-05 0.0
0.24852 -3.35847e-05 0.0
0 0 0.0
0.0622239 -4.26388e-06 0.0
0.032227 -2.81967e-06 0.0
0.16 0 0.0
0.1875 0 0.0
0.21 0 0.0
0.2275 0 0.0
0.193592 -2.70378e-05 0.0
0.138887 -1.50902e-05 0.0
0 0 0.0
0.0475 0 0.0
0.0998415 -1.05265e-05 0.0
0.0622205 -4.31306e-06 0.0
0.0998462 -1.09945e-05 0.0
0.138891 -1.52216e-05 0.0
0.17438 -3.79721e-05 0.0
0.201605 -5.19003e-05 0.0
0.235787 -6.32436e-05 0.0
0.244085 -6.61442e-05 0.0
0.223602 -8.47078e-05 0.0
0.249751 -6.90794e-05 0.0
0.249044 -7.69414e-05 0.0
0.231404 -3.27641e-05 0.0
0.244081 -6.53543e-05 0.0
0 0 0.0
0.0361083 -5.42578e-06 0.0
0.0736128 -1.51213e-05 0.0
0.0622493 -1.65413e-05 0.0
0.17437 -3.74138e-05 0.0
0.220162 -5.18339e-05 0.0
0.201594 -5.19627e-05 0.0
0.115548 -2.25443e-05 0.0
0.146676 -3.48128e-05 0.0
0 0 0.0
0.0360873 -3.67005e-06 0.0
0.069366 -1.18537e-05 0.0
0.0899834 -2.34172e-05 0.0
0.109391 -3.16026e-05 0.0
0.146691 -3.41375e-05 0.0
0.178902 -6.35184e-05 0.0
0.206293 -8.28905e-05 0.0
0.2145 -0.000111495 0.0
0.238527 -9.89446e-05 0.0
0.24735 -0.000102989 0.0
0.229607 -0.000125782 0.0
0.226323 -8.89508e-05 0.0
0.249983 -0.000103482 0.0
0.246426 -0.000100688 0.0
0.23668 -9.48411e-05 0.0
0 0 0.0
0.0322509 -6.11841e-06 0.0
0.0956966 -3.58295e-05 0.0
0.0694294 -2.69913e-05 0.0
0.178876 -6.25413e-05 0.0
0.206269 -8.34869e-05 0.0
0.127476 -4.83137e-05 0.0
0.165873 -7.90275e-05 0.0
0.152326 -5.67385e-05 0.0
0 0 0.0
0.0360794 -5.25832e-06 0.0
0.0621956 -1.63782e-05 0.0
0.0956299 -3.65295e-05 0.0
0.127524 -4.87744e-05 0.0
0.156661 -7.0695e-05 0.0
0.115601 -5.59055e-05 0.0
0.193626 -0.000116173 0.0
0.218141 -0.000146789 0.0
0.24094 -0.000133953 0.0
0.247737 -0.000138873 0.0
0.25 -0.000140366 0.0
0.234397 -0.000169757 0.0
0.229577 -0.000123998 0.0
0.247727 -0.000138545 0.0
0.24092 -0.000133676 0.0
0 0 0.0
0.0344875 -8.45061e-06 0.0
0.103121 -5.48672e-05 0.0
0.0623031 -2.73142e-05 0.0
0.189727 -9.88251e-05 0.0
0.212989 -0.00013769 0.0
0.170534 -0.000106915 0.0
0.14433 -7.94834e-05 0.0
0 0 0.0
0.0398978 -9.01945e-06 0.0
0.0997864 -4.99602e-05 0.0
0.0693211 -2.65766e-05 0.0
0.170624 -0.00010707 0.0
0.144421 -8.12242e-05 0.0
0.124377 -8.22428e-05 0.0
0.183649 -0.000135112 0.0
0.204131 -0.000161594 0.0
0.222038 -0.000190067 0.0
0.249109 -0.000183916 0.0
0.244026 -0.000179087 0.0
0.24912 -0.00018395 0.0
0.23855 -0.000215684 0.0
0.234353 -0.000168675 0.0
0.244883 -0.000193752 0.0
0 0 0.0
0.0322922 -8.93704e-06 0.0
0.0940737 -5.76035e-05 0.0
0.065217 -3.44805e-05 0.0
0.196697 -0.000147579 0.0
0.217872 -0.000181068 0.0
0.177439 -0.000149649 0.0
0.148691 -0.000104707 0.0
0.120329 -7.34702e-05 0.0
0 0 0.0
0.0343905 -8.55086e-06 0.0
0.0716443 -3.46722e-05 0.0
0.152424 -0.000117357 0.0
0.127613 -0.000101914 0.0
0.187577 -0.000167217 0.0
0.21195 -0.000208039 0.0
0.248605 -0.000227864 0.0
0.225684 -0.000235528 0.0
0.249782 -0.000229549 0.0
0.246474 -0.000225735 0.0
0.242064 -0.000263756 0.0
0.23849 -0.000214951 0.0
0 0 0.0
0.0338744 -1.11822e-05 0.0
0.0999919 -7.67337e-05 0.0
0.0695441 -4.58326e-05 0.0
0.206261 -0.000194657 0.0
0.222405 -0.000226704 0.0
0.189977 -0.000202011 0.0
0.168255 -0.000163382 0.0
0.143005 -0.000125552 0.0
0.124195 -9.28693e-05 0.0
0.0970846 -6.25266e-05 0.0
0 0 0.0
0.0360205 -1.08692e-05 0.0
0.0673153 -3.71165e-05 0.0
0.130333 -0.000122934 0.0
0.168481 -0.000164299 0.0
0.199471 -0.000214114 0.0
0.218377 -0.000251054 0.0
0.241992 -0.000264205 0.0
0.25 -0.000275838 0.0
0.247989 -0.000272584 0.0
0.22908 -0.000283048 0.0
0.244937 -0.00031353 0.0
0.24874 -0.000289341 0.0
0.234446 -0.000270492 0.0
0 0 0.0
0.0362324 -1.43971e-05 0.0
0.122656 -0.000125781 0.0
0.0712276 -5.41459e-05 0.0
0.208351 -0.000237533 0.0
0.225127 -0.000282331 0.0
0.19805 -0.000246316 0.0
0.177727 -0.000204222 0.0
0.146528 -0.000150899 0.0
0.119134 -0.000105694 0.0
0.0970522 -7.08353e-05 0.0
0 0 0.0
0.0349385 -1.21612e-05 0.0
0.0672784 -4.17457e-05 0.0
0.152299 -0.000171481 0.0
0.178015 -0.000209333 0.0
0.210114 -0.000264576 0.0
0.244859 -0.000313174 0.0
0.24942 -0.000321788 0.0
0.232224 -0.000332415 0.0
0.244196 -0.000356253 0.0
0.249988 -0.000379792 0.0
0.249132 -0.000338056 0.0
0.235914 -0.000323239 0.0
0.212961 -0.000322494 0.0
0 0 0.0
0.037161 -1.69472e-05 0.0
0.141107 -0.000174797 0.0
0.0999543 -0.000105928 0.0
0.0665975 -5.27593e-05 0.0
0.213631 -0.000288347 0.0
0.18661 -0.000251047 0.0
0.165087 -0.000204536 0.0
0.122243 -0.000126502 0.0
0.0928677 -7.75962e-05 0.0
0 0 0.0
0.0349089 -1.35688e-05 0.0
0.0642277 -4.43109e-05 0.0
0.165594 -0.000218877 0.0
0.186965 -0.000257147 0.0
0.15812 -0.000228807 0.0
0.247092 -0.000365383 0.0
0.248691 -0.000419325 0.0
0.23105 -0.000372886 0.0
0.240524 -0.000397739 0.0
0.248756 -0.000419282 0.0
0.240204 -0.000371323 0.0
0.229258 -0.000364487 0.0
0.199179 -0.000315625 0.0
0.218631 -0.000376871 0.0
0 0 0.0
0.0346485 -1.66291e-05 0.0
0.126165 -0.000169775 0.0
0.0681753 -5.95697e-05 0.0
0.0988152 -0.000115267 0.0
0.208086 -0.000328945 0.0
0.189763 -0.000287038 0.0
0.16813 -0.000238526 0.0
0.140623 -0.000173284 0.0
0.0954115 -9.21635e-05 0.0
0 0 0.0
0.033253 -1.38789e-05 0.0
0.0660578 -5.27122e-05 0.0
0.183219 -0.000298131 0.0
0.159258 -0.000255859 0.0
0.244899 -0.000431865 0.0
0.24966 -0.000473897 0.0
0.235959 -0.000435731 0.0
0.244856 -0.000460239 0.0
0.249377 -0.000473163 0.0
0.238622 -0.000436826 0.0
0.218424 -0.000394673 0.0
0.2031 -0.000367825 0.0
0.223367 -0.00043053 0.0
0 0 0.0
0.0478041 -3.31003e-05 0.0
0.127915 -0.000193372 0.0
0.0904187 -0.000108267 0.0
0.202612 -0.000352996 0.0
0.177972 -0.000290707 0.0
0.147893 -0.000218748 0.0
0.118724 -0.000143969 0.0
0.0780304 -7.75066e-05 0.0
0 0 0.0
0.0342314 -1.63432e-05 0.0
0.187827 -0.000352667 0.0
0.160395 -0.000284521 0.0
0.246452 -0.000492659 0.0
0.249998 -0.00053096 0.0
0.240136 -0.000502446 0.0
0.247574 -0.000553072 0.0
0.239862 -0.000500144 0.0
0.227296 -0.000462916 0.0
0.209734 -0.000411996 0.0
0.227719 -0.000488306 0.0
0.210285 -0.000431556 0.0
0 0 0.0
0.0478668 -3.68991e-05 0.0
0.128008 -0.000215639 0.0
0.0904993 -0.000118913 0.0
0.187176 -0.000349158 0.0
0.159625 -0.000274329 0.0
0.0471993 -3.25566e-05 0.0
0.127091 -0.000190519 0.0
0.0895942 -0.000106193 0.0
0 0 0.0
0.187901 -0.0003962 0.0
0.160483 -0.000318312 0.0
0.24742 -0.00055798 0.0
0.249997 -0.000597486 0.0
0.240168 -0.000566217 0.0
0.24759 -0.00062143 0.0
0.22725 -0.000520038 0.0
0.239829 -0.000562058 0.0
0.187103 -0.000391481 0.0
0.209673 -0.000462523 0.0
0.227759 -0.000535966 0.0
0.210349 -0.000485187 0.0
0 0 0.0
0.0479356 -4.02668e-05 0.0
0.128112 -0.000239456 0.0
0.0906084 -0.00013296 0.0
0.126998 -0.000213507 0.0
0.159541 -0.00030745 0.0
0.0471405 -3.61825e-05 0.0
0.0895063 -0.000118142 0.0
0 0 0.0
0.187986 -0.000442647 0.0
0.160583 -0.000354815 0.0
0.247402 -0.000625244 0.0
0.249996 -0.000668735 0.0
0.227802 -0.000588188 0.0
0.240216 -0.000662451 0.0
0.247607 -0.000695517 0.0
0.227206 -0.000568208 0.0
0.239793 -0.000628351 0.0
0.187041 -0.000423954 0.0
0.209604 -0.00051631 0.0
0.21042 -0.000542921 0.0
0 0 0.0
0.0480161 -4.44199e-05 0.0
0.128247 -0.000268729 0.0
0.0907195 -0.000146109 0.0
0.126912 -0.000233365 0.0
0.159446 -0.000342158 0.0
0.0470688 -4.041e-05 0.0
0.0894088 -0.000130842 0.0
0 0 0.0
0.160695 -0.000393707 0.0
0.188106 -0.000505443 0.0
0.247381 -0.0006973 0.0
0.249994 -0.000745389 0.0
0.240249 -0.000724272 0.0
0.227883 -0.000681787 0.0
0.247626 -0.00077447 0.0
0.239752 -0.000698671 0.0
0.227159 -0.000620685 0.0
0.186952 -0.000470751 0.0
0.209528 -0.000573115 0.0
0.210501 -0.000606244 0.0
0 0 0.0
0.0480965 -4.85085e-05 0.0
0.128359 -0.000292421 0.0
0.0908419 -0.000160002 0.0
0.126801 -0.000258876 0.0
0.15934 -0.000379844 0.0
0 0 0.0
0.0892998 -0.000145681 0.0
0.0469961 -4.4796e-05 0.0
0.188217 -0.000563989 0.0
0.160821 -0.000436826 0.0
0.227939 -0.000745486 0.0
0.247358 -0.000775377 0.0
0.24999 -0.000828723 0.0
0.247641 -0.000841629 0.0
0.240283 -0.000789519 0.0
0.239705 -0.000774493 0.0
0.227095 -0.000688191 0.0
0.186826 -0.000533477 0.0
0.209443 -0.000634771 0.0
0.210591 -0.000674951 0.0
0 0 0.0
0.0481866 -5.25634e-05 0.0
0.0909633 -0.00017281 0.0
0.128505 -0.000321729 0.0
0.126658 -0.000291406 0.0
0.159224 -0.000420564 0.0
0 0 0.0
0.046908 -5.00457e-05 0.0
0.0891929 -0.000159961 0.0
0.18831 -0.000610421 0.0
0.160963 -0.000484511 0.0
0.227998 -0.000814974 0.0
0.240349 -0.000916796 0.0
0.24733 -0.000859899 0.0
0.249985 -0.000918748 0.0
0.247658 -0.000912878 0.0
0.239652 -0.000855884 0.0
0.227023 -0.000760625 0.0
0.186742 -0.000574655 0.0
0.209348 -0.000699438 0.0
0.210693 -0.00075218 0.0
0 0 0.0
0.0482854 -5.66174e-05 0.0
0.128695 -0.000360385 0.0
0.0911271 -0.000190845 0.0
0.126541 -0.000318373 0.0
0.159095 -0.000464559 0.0
0.0468186 -5.54434e-05 0.0
0 0 0.0
0.0890484 -0.000180113 0.0
0.161123 -0.000537977 0.0
0.188481 -0.000697067 0.0
0.22811 -0.000942534 0.0
0.240402 -0.00102213 0.0
0.247677 -0.00101457 0.0
0.247281 -0.000992137 0.0
0.249977 -0.00101906 0.0
0.239592 -0.000945218 0.0
0.226913 -0.000864124 0.0
0.18659 -0.000646363 0.0
0.209244 -0.000769307 0.0
0.210806 -0.000838708 0.0
0 0 0.0
0.0483912 -6.07344e-05 0.0
0.0912924 -0.000207365 0.0
0.161304 -0.000597005 0.0
0.128853 -0.000391525 0.0
0.126393 -0.000352774 0.0
0.158984 -0.000502107 0.0
0.0467126 -6.28283e-05 0.0
0 0 0.0
0.0889155 -0.000199266 0.0
0.210912 -0.000921601 0.0
0.188599 -0.000758895 0.0
0.240446 -0.0011134 0.0
0.228201 -0.0010558 0.0
0.247708 -0.0011778 0.0
0.249965 -0.00112715 0.0
0.247249 -0.00107056 0.0
0.239523 -0.00103877 0.0
0.226836 -0.000932348 0.0
0.18649 -0.000692145 0.0
0.158805 -0.000562279 0.0
0.209129 -0.000841272 0.0
0 0 0.0
0.0914593 -0.000226362 0.0
0.048515 -6.61569e-05 0.0
0.161466 -0.00065457 0.0
0.129093 -0.000444007 0.0
0.126231 -0.000390302 0.0
0 0 0.0
0.0465939 -7.09346e-05 0.0
0.0887384 -0.000224948 0.0
0.21103 -0.00101345 0.0
0.188816 -0.000878156 0.0
0.240491 -0.00121327 0.0
0.228301 -0.00118316 0.0
0.247719 -0.00128086 0.0
0.249946 -0.00124723 0.0
0.247213 -0.0011563 0.0
0.158675 -0.000601223 0.0
0.209022 -0.000904376 0.0
0.239442 -0.00113762 0.0
0.226752 -0.00100434 0.0
0.186347 -0.000755179 0.0
0 0 0.0
0.0486366 -7.16868e-05 0.0
0.0916627 -0.000251603 0.0
0.161693 -0.000736548 0.0
0.129334 -0.000499754 0.0
0.0885598 -0.000249113 0.0
0.126029 -0.000435049 0.0
0 0 0.0
0.0464549 -8.02316e-05 0.0
0.21118 -0.0011402 0.0
0.189018 -0.000992755 0.0
0.24055 -0.00135481 0.0
0.228407 -0.0013298 0.0
0.247731 -0.00139257 0.0
0.249922 -0.0013802 0.0
0.247127 -0.00132405 0.0
0.158505 -0.000651394 0.0
0.23935 -0.00124437 0.0
0.208906 -0.000966536 0.0
0.226597 -0.00112666 0.0
0.186152 -0.000835475 0.0
0 0 0.0
0.091921 -0.000288792 0.0
0.0487778 -8.0907e-05 0.0
0.162004 -0.00085977 0.0
0.129608 -0.000570368 0.0
0.0883871 -0.00027087 0.0
0.125839 -0.000474866 0.0
0 0 0.0
0.0463055 -9.0254e-05 0.0
0.189241 -0.00113108 0.0
0.211346 -0.00129042 0.0
0.240608 -0.00151935 0.0
0.247739 -0.00154728 0.0
0.22852 -0.00149884 0.0
0.249884 -0.00152361 0.0
0.24705 -0.00145679 0.0
0.239241 -0.00135498 0.0
0.249414 -0.00166365 0.0
0.15832 -0.000697839 0.0
0.226459 -0.0012201 0.0
0.208707 -0.00106389 0.0
0.186023 -0.000879722 0.0
0 0 0.0
0.0921677 -0.000330344 0.0
0.0489515 -9.30746e-05 0.0
0.162242 -0.000963989 0.0
0.129921 -0.000660545 0.0
0.088182 -0.000293188 0.0
0.125667 -0.000504954 0.0
0 0 0.0
0.0461515 -9.90349e-05 0.0
0.189492 -0.00129663 0.0
0.211527 -0.00146842 0.0
0.240657 -0.00170214 0.0
0.228638 -0.00169903 0.0
0.247727 -0.00181314 0.0
0.249032 -0.00160852 0.0
0.243678 -0.00150925 0.0
0.233357 -0.00137397 0.0
0.249795 -0.00177296 0.0
0.158126 -0.000736167 0.0
0.218068 -0.00121282 0.0
0.20333 -0.00108194 0.0
0.185793 -0.000944486 0.0
0 0 0.0
0.0924823 -0.000391069 0.0
0.0491421 -0.000108456 0.0
0.16257 -0.00112215 0.0
0.130283 -0.000777194 0.0
0.125425 -0.000535988 0.0
0.0879655 -0.000311121 0.0
0 0 0.0
0.0459695 -0.000106091 0.0
0.189769 -0.00149837 0.0
0.211723 -0.0016797 0.0
0.247697 -0.00202105 0.0
0.228757 -0.0019297 0.0
0.240708 -0.00191753 0.0
0.246889 -0.00168097 0.0
0.239018 -0.00154389 0.0
0.226186 -0.00137375 0.0
0.249703 -0.00195997 0.0
0.157916 -0.000763274 0.0
0.208395 -0.00117908 0.0
0.185585 -0.000985781 0.0
0 0 0.0
0.0493622 -0.000128999 0.0
0.0928532 -0.000470711 0.0
0.130637 -0.000901037 0.0
0.190074 -0.00173939 0.0
0.162943 -0.00131754 0.0
0.125204 -0.000549665 0.0
0.0877415 -0.000321984 0.0
0.0457838 -0.000112162 0.0
0 0 0.0
0.228854 -0.00215088 0.0
0.211931 -0.00193311 0.0
0.24766 -0.00220493 0.0
0.240739 -0.00216657 0.0
0.225982 -0.00146189 0.0
0.246747 -0.00183732 0.0
0.238837 -0.00166737 0.0
0.249584 -0.00216677 0.0
0.18536 -0.00100876 0.0
0.157651 -0.000769003 0.0
0.208107 -0.00125055 0.0
0 0 0.0
0.049641 -0.000160632 0.0
0.0933507 -0.000580135 0.0
0.131116 -0.00108065 0.0
0.19032 -0.0019583 0.0
0.163453 -0.00161781 0.0
0.124983 -0.000545707 0.0
0.0874992 -0.000320244 0.0
0.0455989 -0.000113454 0.0
0 0 0.0
0.124762 -0.000520821 0.0
0.228946 -0.00239143 0.0
0.212218 -0.00233638 0.0
0.240756 -0.00257873 0.0
0.247605 -0.00240285 0.0
0.225647 -0.00157332 0.0
0.238622 -0.00179231 0.0
0.24657 -0.0020079 0.0
0.249418 -0.00239764 0.0
0.185106 -0.00101285 0.0
0.157408 -0.000753495 0.0
0.207841 -0.00129265 0.0
0 0 0.0
0.0499814 -0.000195601 0.0
0.0938993 -0.000708014 0.0
0.131673 -0.00130111 0.0
0.190677 -0.00228761 0.0
0.163942 -0.00192287 0.0
0.0454109 -0.000113755 0.0
0.0872823 -0.000309357 0.0
0 0 0.0
0.124578 -0.000479563 0.0
0.229049 -0.0027413 0.0
0.212446 -0.00270588 0.0
0.240732 -0.0029204 0.0
0.247495 -0.00269538 0.0
0.225392 -0.0016408 0.0
0.238359 -0.00192184 0.0
0.249208 -0.00265352 0.0
0.246233 -0.00227906 0.0
0.184891 -0.000999366 0.0
0.157153 -0.000710738 0.0
0.207536 -0.00131575 0.0
0 0 0.0
0.0503987 -0.000241959 0.0
0.0945601 -0.000860553 0.0
0.132429 -0.00160651 0.0
0.19116 -0.00278541 0.0
0.212678 -0.00313748 0.0
0.16449 -0.00228542 0.0
0.0452478 -0.000106935 0.0
0.0870878 -0.000284033 0.0
0 0 0.0
0.124375 -0.000412904 0.0
0.22916 -0.00328572 0.0
0.240691 -0.00323352 0.0
0.247344 -0.00302338 0.0
0.249007 -0.00286838 0.0
0.225105 -0.00169651 0.0
0.238029 -0.00206301 0.0
0.24592 -0.00248459 0.0
0.156885 -0.000640377 0.0
0.184575 -0.000963889 0.0
0.207173 -0.00132487 0.0
0 0 0.0
0.0509385 -0.000298999 0.0
0.095356 -0.00104547 0.0
0.133211 -0.00192592 0.0
0.191473 -0.00313783 0.0
0.212904 -0.00362223 0.0
0.165112 -0.0027051 0.0
0.0450927 -9.81998e-05 0.0
0.0869251 -0.000243673 0.0
0 0 0.0
0.156659 -0.000561503 0.0
0.0868079 -0.000186641 0.0
0.124163 -0.000310595 0.0
0.229211 -0.00378044 0.0
0.240616 -0.00356648 0.0
0.247024 -0.00357097 0.0
0.248774 -0.00309402 0.0
0.245636 -0.00266265 0.0
0.224694 -0.00176192 0.0
0.237464 -0.00226569 0.0
0.184121 -0.000884084 0.0
0.206818 -0.00132573 0.0
0.229239 -0.00421618 0.0
0 0 0.0
0.0515615 -0.000361939 0.0
0.13413 -0.00229355 0.0
0.0962988 -0.00125918 0.0
0.213134 -0.004188 0.0
0.19204 -0.00380238 0.0
0.165812 -0.00318425 0.0
0.0449646 -7.88132e-05 0.0
0 0 0.0
0.183801 -0.000825412 0.0
0.156363 -0.000448708 0.0
0.124012 -0.000208221 0.0
0.0448537 -6.56178e-05 0.0
0.0867345 -0.00012336 0.0
0.240488 -0.00404217 0.0
0.246788 -0.00390797 0.0
0.248386 -0.00343059 0.0
0.248043 -0.00371398 0.0
0.245294 -0.00284692 0.0
0.224195 -0.00183158 0.0
0.236938 -0.0024255 0.0
0.206407 -0.0013067 0.0
0.229225 -0.00469943 0.0
0.0522695 -0.000431328 0.0
0 0 0.0
0.135018 -0.00263849 0.0
0.0974077 -0.00149365 0.0
0.213354 -0.00481788 0.0
0.192402 -0.00425642 0.0
0.166609 -0.00372709 0.0
0 0 0.0
0.183348 -0.000724896 0.0
0.155995 -0.000293538 0.0
0.123908 -0.00010224 0.0
0.044802 -4.77664e-05 0.0
0.0867097 -5.60494e-05 0.0
0.2402 -0.0048139 0.0
0.246517 -0.00426519 0.0
0.247638 -0.00401041 0.0
0.244524 -0.00322832 0.0
0.223615 -0.00189415 0.0
0.236337 -0.00259443 0.0
0.205679 -0.00127712 0.0
0.229194 -0.00535748 0.0
0 0 0.0
0.0531556 -0.000512615 0.0
0.136213 -0.00308817 0.0
0.09858 -0.00173201 0.0
0.167503 -0.00432363 0.0
0.213569 -0.0055281 0.0
0.193072 -0.00509016 0.0
0 0 0.0
0 0 0.0
0.182822 -0.000624569 0.0
0.155679 -0.000159026 0.0
0.123823 1.67689e-05 0.0
0.0867485 1.05834e-05 0.0
0.0447825 -2.89701e-05 0.0
0.23991 -0.00543922 0.0
0.246075 -0.00478689 0.0
0.235764 -0.00274732 0.0
0.247018 -0.00445078 0.0
0.24384 -0.00354032 0.0
0.222923 -0.00196862 0.0
0.205001 -0.00125068 0.0
0.239624 -0.00599883 0.0
0.229096 -0.00608964 0.0
0.0542041 -0.000604346 0.0
0.100074 -0.00201777 0.0
0.137586 -0.00358881 0.0
0.168312 -0.00485921 0.0
0.213784 -0.0063074 0.0
0.193499 -0.00566258 0.0
0 0 0.0
0 0 0.0
0.155418 -4.92459e-05 0.0
0.182103 -0.000492575 0.0
0.0868302 7.14563e-05 0.0
0.123764 0.000146235 0.0
0.044782 -1.2209e-05 0.0
0.245282 -0.00562025 0.0
0.246265 -0.00494644 0.0
0.204245 -0.00122931 0.0
0.235119 -0.00290541 0.0
0.243245 -0.00380738 0.0
0.221824 -0.00208287 0.0
0.239288 -0.00657799 0.0
0.228916 -0.00719982 0.0
0.213985 -0.00717421 0.0
0.0554817 -0.000715588 0.0
0.10179 -0.00234365 0.0
0.139408 -0.00422063 0.0
0.169433 -0.00556924 0.0
0.194296 -0.00669355 0.0
0 0 0.0
0 0 0.0
0.155029 9.43315e-05 0.0
0.181449 -0.000411758 0.0
0.0869981 0.000131979 0.0
0.123761 0.000240359 0.0
0.04484 5.12194e-06 0.0
0.242564 -0.00409829 0.0
0.245397 -0.00548244 0.0
0.244575 -0.00629998 0.0
0.203385 -0.00122248 0.0
0.234199 -0.00313686 0.0
0.220851 -0.00220531 0.0
0.180753 -0.000353517 0.0
0.238552 -0.00773398 0.0
0 0 0.0
0.228684 -0.00814052 0.0
0.195 -0.00762409 0.0
0.214178 -0.00811814 0.0
0.0568323 -0.000824893 0.0
0.140966 -0.00474889 0.0
0.10397 -0.00275058 0.0
0.170955 -0.00654146 0.0
0 0 0.0
0 0 0.0
0 0 0.0
0 0 0.0
0 0 0.0
0.0449179 1.58639e-05 0.0
0.123803 0.000307903 0.0
0.154701 0.000178214 0.0
0.0871488 0.000163052 0.0
0.241562 -0.00449606 0.0
0.244379 -0.00608613 0.0
0.243771 -0.00704045 0.0
0.219957 -0.00230598 0.0
0.202415 -0.00124225 0.0
0.232671 -0.00351206 0.0
0.20152 -0.00128105 0.0
0.180184 -0.000329747 0.0
0.237885 -0.00867521 0.0
0.228405 -0.00914967 0.0
0 0 0.0
9.06098e-05 -3.18402e-05 0.0
0 0 0.0
-0.000438961 0.00288985 0.0
0.214374 -0.00917027 0.0
0.195584 -0.00837078 0.0
0.0585484 -0.000969792 0.0
0.142983 -0.00542044 0.0
0.10624 -0.00317075 0.0
0.172416 -0.00744914 0.0
0 0 0.0
0 0 0.0
0 0 0.0
-0.000341544 0.00168866 0.0
-6.08486e-05 -3.6861e-05 0.0
-4.63272e-05 2.55316e-05 0.0
0 0 0.0
0.0449909 1.67932e-05 0.0
0.123845 0.000341426 0.0
0.154369 0.00022119 0.0
0.0873695 0.000177154 0.0
0.240417 -0.00495377 0.0
0.243213 -0.0067492 0.0
0.242824 -0.00784982 0.0
0.218974 -0.00244296 0.0
0.231661 -0.00377657 0.0
0.200551 -0.00134161 0.0
0.179198 -0.000352849 0.0
0.237125 -0.00969137 0.0
0.23078 -0.0100835 0.0
0.221877 -0.0101933 0.0
0 0 0.0
5.76521e-05 3.98838e-05 0.0
0 0 0.0
0 0 0.0
-0.00152335 0.00622747 0.0
-0.00153743 0.00427462 0.0
0.210414 -0.0100334 0.0
0.196408 -0.00946712 0.0
0.108556 -0.00360576 0.0
0.0603495 -0.00113646 0.0
0.145246 -0.00618983 0.0
0.174017 -0.00845946 0.0
0 0 0.0
-0.000627634 0.000979916 0.0
-0.00109864 0.0023706 0.0
-0.000460199 0.000462827 0.0
-0.000493835 0.000404529 0.0
0 0 0.0
0.0450701 1.22518e-05 0.0
0.12392 0.000337534 0.0
0.154039 0.000223717 0.0
0.0875756 0.000161989 0.0
0.239107 -0.00545855 0.0
0.241888 -0.0074717 0.0
0.241731 -0.00873388 0.0
0.217165 -0.00272321 0.0
0.230554 -0.00405219 0.0
0.199318 -0.00147325 0.0
0.153732 0.000151085 0.0
0.178361 -0.000441034 0.0
0.236421 -0.0105633 0.0
0.227778 -0.0110609 0.0
0.214664 -0.0112277 0.0
0 0 0.0
-0.00038815 0.000205655 0.0
0 0 0.0
0 0 0.0
0 0 0.0
0 0 0.0
-0.00285344 0.00452204 0.0
-0.000397825 0.00518644 0.0
-0.00150728 0.00786621 0.0
-0.00356361 0.0102225 0.0
-0.00312228 0.00721572 0.0
0 0 0.0
-2.28732e-05 0.00706688 0.0
0.197514 -0.0110423 0.0
0.175428 -0.00939009 0.0
0 0 0.0
0.0626731 -0.00137051 0.0
0.111455 -0.00418442 0.0
0.148198 -0.00728225 0.0
0 0 0.0
0 0 0.0
-0.00183328 0.00233711 0.0
-0.00151901 0.00137335 0.0