# vtk DataFile Version 3.0
Mesh NS-CD Problem
ASCII
DATASET UNSTRUCTURED_GRID
POINTS 10839 float
-2 0.3 0.0
-2 0.4 0.0
-2 0.35 0.0
-2 0.45 0.0
-2 0.5 0.0
-2 0.55 0.0
-2 0 0.0
-2 0.05 0.0
-2 0.85 0.0
-2 0.9 0.0
-2 0.1 0.0
-2 0.15 0.0
-2 0.25 0.0
-2 0.2 0.0
-1.96653 0.266667 0.0
-1.96524 0.415385 0.0
-1.96485 0.315 0.0
-1.96348 0.363636 0.0
-1.96414 0.464286 0.0
-2 0.6 0.0
-1.96538 0.584615 0.0
-1.96538 0.538462 0.0
-1.94979 0 0.0
-1.96653 0.0666666 0.0
-1.93306 0.0333333 0.0
-2 0.8 0.0
-2 0.75 0.0
-2 0.7 0.0
-2 0.65 0.0
-1.96249 0.7375 0.0
-1.96666 0.833333 0.0
-2 1 0.0
-2 0.95 0.0
-1.96249 0.8875 0.0
-1.96666 0.933333 0.0
-1.96234 0.1125 0.0
-1.96653 0.166667 0.0
-1.93724 0.225 0.0
-1.92971 0.28 0.0
-1.93048 0.380769 0.0
-1.93048 0.423077 0.0
-1.89958 0.3375 0.0
-1.9292 0.484203 0.0
-1.92117 0.530907 0.0
-1.96363 0.636364 0.0
-1.93076 0.576923 0.0
-1.89958 0 0.0
-1.88703 0.0375 0.0
-1.90963 0.08 0.0
-1.86611 0.0666666 0.0
-1.93749 0.775 0.0
-1.93635 0.672727 0.0
-1.92999 0.72 0.0
-1.93332 0.866667 0.0
-1.92856 0.821429 0.0
-1.94999 1 0.0
-1.92499 0.9625 0.0
-1.92499 0.925 0.0
-1.89998 0.9 0.0
-1.89958 0.125 0.0
-1.92827 0.178571 0.0
-1.89958 0.233333 0.0
-1.89045 0.290909 0.0
-1.86096 0.311538 0.0
-1.89241 0.392857 0.0
-1.89334 0.448489 0.0
-1.85655 0.357143 0.0
-1.89614 0.653846 0.0
-1.89427 0.504121 0.0
-1.8952 0.559753 0.0
-1.89614 0.615385 0.0
-1.84937 0 0.0
-1.83264 0.0333333 0.0
-1.85655 0.107143 0.0
-1.81172 0.075 0.0
-1.89998 0.766667 0.0
-1.89089 0.709091 0.0
-1.87498 0.85 0.0
-1.85998 0.79 0.0
-1.88748 0.8125 0.0
-1.89998 1 0.0
-1.88748 0.9625 0.0
-1.86664 0.933333 0.0
-1.85712 0.892857 0.0
-1.87448 0.15 0.0
-1.86611 0.194444 0.0
-1.83264 0.133333 0.0
-1.83264 0.2625 0.0
-1.82068 0.321429 0.0
-1.85664 0.404762 0.0
-1.85674 0.452381 0.0
-1.85683 0.5 0.0
-1.81184 0.375 0.0
-1.85712 0.642857 0.0
-1.85693 0.547619 0.0
-1.85702 0.595238 0.0
-1.79917 0 0.0
-1.78482 0.0357143 0.0
-1.79917 0.116667 0.0
-1.76569 0.0666666 0.0
-1.85452 0.745455 0.0
-1.82689 0.692308 0.0
-1.81815 0.781818 0.0
-1.82497 0.825 0.0
-1.84997 1 0.0
-1.8333 0.958333 0.0
-1.81247 0.8875 0.0
-1.81247 0.925 0.0
-1.81742 0.218182 0.0
-1.82427 0.175 0.0
-1.77634 0.145455 0.0
-1.79144 0.242308 0.0
-1.78482 0.285714 0.0
-1.77469 0.332653 0.0
-1.81215 0.529762 0.0
-1.81194 0.422619 0.0
-1.81203 0.470238 0.0
-1.76714 0.392857 0.0
-1.81234 0.625 0.0
-1.79732 0.571429 0.0
-1.74896 0 0.0
-1.73222 0.0333333 0.0
-1.75398 0.105 0.0
-1.71883 0.07 0.0
-1.79227 0.730769 0.0
-1.78007 0.679121 0.0
-1.75765 0.769231 0.0
-1.78178 0.818182 0.0
-1.78996 0.86 0.0
-1.79996 1 0.0
-1.78568 0.964286 0.0
-1.76663 0.922222 0.0
-1.76569 0.1875 0.0
-1.73222 0.15 0.0
-1.74896 0.25 0.0
-1.73714 0.304762 0.0
-1.76743 0.537202 0.0
-1.72869 0.343878 0.0
-1.76732 0.485119 0.0
-1.76723 0.440476 0.0
-1.72243 0.410714 0.0
-1.76757 0.607143 0.0
-1.69875 0 0.0
-1.68369 0.035 0.0
-1.69875 0.1125 0.0
-1.66528 0.075 0.0
-1.74341 0.708974 0.0
-1.73324 0.665934 0.0
-1.70441 0.74478 0.0
-1.71423 0.785714 0.0
-1.72303 0.826923 0.0
-1.74541 0.854545 0.0
-1.74541 0.890909 0.0
-1.74996 1 0.0
-1.73745 0.9625 0.0
-1.71359 0.927273 0.0
-1.68716 0.153846 0.0
-1.7131 0.214286 0.0
-1.70725 0.275 0.0
-1.69712 0.321939 0.0
-1.72279 0.589286 0.0
-1.72261 0.5 0.0
-1.7227 0.544643 0.0
-1.6827 0.355102 0.0
-1.67773 0.428571 0.0
-1.70763 0.464286 0.0
-1.70369 0.62449 0.0
-1.64854 0 0.0
-1.63181 0.0375 0.0
-1.64137 0.142857 0.0
-1.61764 0.0769231 0.0
-1.69458 0.703846 0.0
-1.67471 0.657437 0.0
-1.66143 0.727637 0.0
-1.67125 0.768571 0.0
-1.67851 0.821429 0.0
-1.68841 0.861538 0.0
-1.70904 0.890909 0.0
-1.69995 1 0.0
-1.68176 0.963636 0.0
-1.67267 0.927273 0.0
-1.65427 0.187143 0.0
-1.66718 0.231429 0.0
-1.66554 0.3 0.0
-1.67802 0.571429 0.0
-1.67792 0.523809 0.0
-1.6367 0.366327 0.0
-1.63682 0.423469 0.0
-1.62568 0.502976 0.0
-1.6629 0.470238 0.0
-1.65254 0.618367 0.0
-1.6059 0.307143 0.0
-1.59833 0 0.0
-1.58288 0.0384615 0.0
-1.60563 0.169643 0.0
-1.58179 0.112271 0.0
-1.56964 0.0714286 0.0
-1.64574 0.690385 0.0
-1.62827 0.751429 0.0
-1.63371 0.791071 0.0
-1.64279 0.857143 0.0
-1.65378 0.896154 0.0
-1.64994 1 0.0
-1.6363 0.963636 0.0
-1.61916 0.930769 0.0
-1.61345 0.209107 0.0
-1.62126 0.248571 0.0
-1.56989 0.196429 0.0
-1.63324 0.553571 0.0
-1.58846 0.535714 0.0
-1.59408 0.361905 0.0
-1.59161 0.402211 0.0
-1.58832 0.464286 0.0
-1.61504 0.598581 0.0
-1.59683 0.64359 0.0
-1.57899 0.274107 0.0
-1.56176 0.322381 0.0
-1.54812 0 0.0
-1.53378 0.0357143 0.0
-1.54593 0.147619 0.0
-1.53385 0.0732143 0.0
-1.53393 0.110714 0.0
-1.58522 0.704286 0.0
-1.58709 0.745 0.0
-1.58896 0.785714 0.0
-1.60695 0.830357 0.0
-1.60707 0.892857 0.0
-1.59993 1 0.0
-1.58454 0.965385 0.0
-1.57135 0.928571 0.0
-1.55209 0.241071 0.0
-1.5291 0.198214 0.0
-1.56936 0.570918 0.0
-1.54369 0.517857 0.0
-1.5464 0.380952 0.0
-1.54564 0.427721 0.0
-1.54488 0.47449 0.0
-1.55026 0.606122 0.0
-1.54222 0.677143 0.0
-1.52943 0.282857 0.0
-1.52143 0.33619 0.0
-1.49792 0 0.0
-1.49802 0.05 0.0
-1.49822 0.15 0.0
-1.49312 0.1 0.0
-1.5423 0.717143 0.0
-1.54419 0.767857 0.0
-1.54727 0.819048 0.0
-1.57122 0.861905 0.0
-1.53553 0.914286 0.0
-1.54992 1 0.0
-1.53563 0.964286 0.0
-1.49842 0.25 0.0
-1.48831 0.2 0.0
-1.5214 0.558929 0.0
-1.49891 0.5 0.0
-1.49871 0.4 0.0
-1.47631 0.45 0.0
-1.49911 0.6 0.0
-1.49921 0.65 0.0
-1.49931 0.7 0.0
-1.48111 0.35 0.0
-1.48351 0.3 0.0
-1.44771 0 0.0
-1.44782 0.05 0.0
-1.44804 0.15 0.0
-1.44793 0.1 0.0
-1.49941 0.75 0.0
-1.49951 0.8 0.0
-1.49981 0.95 0.0
-1.49961 0.85 0.0
-1.49971 0.9 0.0
-1.49991 1 0.0
-1.44826 0.25 0.0
-1.43815 0.2 0.0
-1.47151 0.55 0.0
-1.44881 0.5 0.0
-1.44859 0.4 0.0
-1.42619 0.45 0.0
-1.44913 0.65 0.0
-1.44902 0.6 0.0
-1.44935 0.75 0.0
-1.44924 0.7 0.0
-1.43972 0.35 0.0
-1.43336 0.3 0.0
-1.3975 0 0.0
-1.39762 0.05 0.0
-1.39786 0.15 0.0
-1.39274 0.1 0.0
-1.44957 0.85 0.0
-1.44946 0.8 0.0
-1.4523 0.95 0.0
-1.44968 0.9 0.0
-1.4499 1 0.0
-1.3981 0.25 0.0
-1.38798 0.2 0.0
-1.42141 0.55 0.0
-1.3987 0.5 0.0
-1.39834 0.35 0.0
-1.37845 0.4 0.0
-1.37607 0.45 0.0
-1.40784 0.65 0.0
-1.39894 0.6 0.0
-1.41185 0.75 0.0
-1.39918 0.7 0.0
-1.38322 0.3 0.0
-1.34729 0 0.0
-1.34492 0.05 0.0
-1.34018 0.15 0.0
-1.34255 0.1 0.0
-1.40707 0.85 0.0
-1.39941 0.8 0.0
-1.39977 0.95 0.0
-1.39965 0.9 0.0
-1.39989 1 0.0
-1.33781 0.2 0.0
-1.33544 0.25 0.0
-1.37131 0.55 0.0
-1.34859 0.5 0.0
-1.33833 0.4 0.0
-1.3307 0.35 0.0
-1.32595 0.45 0.0
-1.34885 0.6 0.0
-1.36655 0.65 0.0
-1.36179 0.75 0.0
-1.34911 0.7 0.0
-1.33307 0.3 0.0
-1.29708 0 0.0
-1.29722 0.05 0.0
-1.2975 0.15 0.0
-1.29236 0.1 0.0
-1.35703 0.85 0.0
-1.34937 0.8 0.0
-1.34988 1 0.0
-1.34962 0.9 0.0
-1.35226 0.95 0.0
-1.28528 0.25 0.0
-1.28764 0.2 0.0
-1.28931 0.35 0.0
-1.32121 0.55 0.0
-1.29848 0.5 0.0
-1.28709 0.45 0.0
-1.2982 0.4 0.0
-1.29876 0.6 0.0
-1.31647 0.65 0.0
-1.29918 0.75 0.0
-1.29904 0.7 0.0
-1.28292 0.3 0.0
-1.24687 0 0.0
-1.24702 0.05 0.0
-1.24717 0.1 0.0
-1.24732 0.15 0.0
-1.29946 0.85 0.0
-1.29932 0.8 0.0
-1.29987 1 0.0
-1.29974 0.95 0.0
-1.30462 0.9 0.0
-1.24762 0.25 0.0
-1.23747 0.2 0.0
-1.24792 0.35 0.0
-1.22807 0.4 0.0
-1.27111 0.55 0.0
-1.24837 0.5 0.0
-1.24822 0.45 0.0
-1.24867 0.6 0.0
-1.26639 0.65 0.0
-1.26167 0.75 0.0
-1.24897 0.7 0.0
-1.23277 0.3 0.0
-1.19667 0 0.0
-1.19683 0.05 0.0
-1.18964 0.15 0.0
-1.19198 0.1 0.0
-1.25695 0.85 0.0
-1.24927 0.8 0.0
-1.25223 0.95 0.0
-1.24987 1 0.0
-1.24957 0.9 0.0
-1.1873 0.2 0.0
-1.18496 0.25 0.0
-1.18028 0.35 0.0
-1.17794 0.4 0.0
-1.1981 0.45 0.0
-1.19842 0.55 0.0
-1.19826 0.5 0.0
-1.19858 0.6 0.0
-1.19874 0.65 0.0
-1.19906 0.75 0.0
-1.1989 0.7 0.0
-1.18262 0.3 0.0
-1.14646 0 0.0
-1.14663 0.05 0.0
-1.1418 0.1 0.0
-1.13713 0.2 0.0
-1.14697 0.15 0.0
-1.20691 0.85 0.0
-1.20926 0.8 0.0
-1.20221 0.95 0.0
-1.19986 1 0.0
-1.20456 0.9 0.0
-1.13997 0.3 0.0
-1.14731 0.25 0.0
-1.13781 0.4 0.0
-1.13014 0.35 0.0
-1.12548 0.45 0.0
-1.14815 0.5 0.0
-1.15962 0.55 0.0
-1.14849 0.6 0.0
-1.15745 0.65 0.0
-1.16155 0.75 0.0
-1.14917 0.8 0.0
-1.14883 0.7 0.0
-1.09625 0 0.0
-1.09661 0.1 0.0
-1.09393 0.05 0.0
-1.09697 0.2 0.0
-1.08929 0.15 0.0
-1.15687 0.85 0.0
-1.14985 1 0.0
-1.15219 0.95 0.0
-1.14951 0.9 0.0
-1.09733 0.3 0.0
-1.08465 0.25 0.0
-1.09769 0.4 0.0
-1.08 0.35 0.0
-1.08661 0.45 0.0
-1.09804 0.5 0.0
-1.12082 0.55 0.0
-1.10916 0.8 0.0
-1.10629 0.7 0.0
-1.0984 0.6 0.0
-1.11616 0.65 0.0
-1.11149 0.75 0.0
-1.04604 0 0.0
-1.04623 0.05 0.0
-1.04642 0.1 0.0
-1.0468 0.2 0.0
-1.03911 0.15 0.0
-1.09948 0.9 0.0
-1.0993 0.85 0.0
-1.09984 1 0.0
-1.09966 0.95 0.0
-1.04718 0.3 0.0
-1.03449 0.25 0.0
-1.04756 0.4 0.0
-1.02986 0.35 0.0
-1.04775 0.45 0.0
-1.04794 0.5 0.0
-1.04813 0.55 0.0
-1.05911 0.8 0.0
-1.04831 0.6 0.0
-1.06376 0.7 0.0
-1.0485 0.65 0.0
-1.04888 0.75 0.0
-0.995833 0 0.0
-0.991231 0.1 0.0
-0.996033 0.05 0.0
-0.986629 0.2 0.0
-0.98893 0.15 0.0
-1.05447 0.9 0.0
-1.04926 0.85 0.0
-1.04983 1 0.0
-1.04964 0.95 0.0
-0.984328 0.25 0.0
-0.99703 0.3 0.0
-0.997429 0.4 0.0
-0.997628 0.45 0.0
-0.979726 0.35 0.0
-0.997827 0.5 0.0
-0.998027 0.55 0.0
-0.998226 0.6 0.0
-0.961416 0.475 0.0
-1.00907 0.8 0.0
-0.998426 0.65 0.0
-0.998625 0.7 0.0
-1.01138 0.75 0.0
-0.945625 0 0.0
-0.946044 0.1 0.0
-0.943334 0.05 0.0
-0.946463 0.2 0.0
-0.938752 0.15 0.0
-1.00444 0.9 0.0
-1.00675 0.85 0.0
-0.999821 1 0.0
-1.00213 0.95 0.0
-0.93417 0.25 0.0
-0.946881 0.3 0.0
-0.9473 0.4 0.0
-0.929588 0.35 0.0
-0.925005 0.45 0.0
-0.960371 0.525 0.0
-0.959325 0.575 0.0
-0.958279 0.625 0.0
-0.922714 0.5 0.0
-0.959017 0.8 0.0
-0.957233 0.675 0.0
-0.952999 0.7125 0.0
-0.948766 0.75 0.0
-0.895417 0 0.0
-0.895855 0.1 0.0
-0.893136 0.05 0.0
-0.896294 0.2 0.0
-0.888573 0.15 0.0
-0.949184 0.85 0.0
-0.954415 0.9 0.0
-0.949812 1 0.0
-0.949603 0.95 0.0
-0.884011 0.25 0.0
-0.896733 0.3 0.0
-0.874887 0.45 0.0
-0.879449 0.35 0.0
-0.897171 0.4 0.0
-0.920423 0.55 0.0
-0.918132 0.6 0.0
-0.915841 0.65 0.0
-0.872606 0.5 0.0
-0.908968 0.8 0.0
-0.91355 0.7 0.0
-0.898707 0.75 0.0
-0.845208 0 0.0
-0.845438 0.05 0.0
-0.845667 0.1 0.0
-0.845896 0.15 0.0
-0.833853 0.25 0.0
-0.846126 0.2 0.0
-0.899146 0.85 0.0
-0.904386 0.9 0.0
-0.899584 0.95 0.0
-0.899804 1 0.0
-0.838062 0.35 0.0
[...]
POINT_DATA 10839
VECTORS Velocity float
0.21 0 0.0
0.24 0 0.0
0.2275 0 0.0
0.2475 0 0.0
0.25 0 0.0
0.2475 0 0.0
0 0 0.0
0.0475 0 0.0
0.1275 0 0.0
0.09 0 0.0
0.09 0 0.0
0.1275 0 0.0
0.1875 0 0.0
0.16 0 0.0
0.195557 -2.27051e-05 0.0
0.242841 -3.07429e-05 0.0
0.215776 -2.69456e-05 0.0
0.231406 -3.03027e-05 0.0
0.248725 -3.26691e-05 0.0
0.24 0 0.0
0.24284 -3.05614e-05 0.0
0.24852 -3.1424e-05 0.0
0 0 0.0
0.0622239 -4.06452e-06 0.0
0.0322268 -2.68504e-06 0.0
0.16 0 0.0
0.1875 0 0.0
0.21 0 0.0
0.2275 0 0.0
0.193592 -2.53142e-05 0.0
0.138887 -1.42122e-05 0.0
0 0 0.0
0.0475 0 0.0
0.0998416 -9.96553e-06 0.0
0.0622206 -4.11499e-06 0.0
0.0998461 -1.0427e-05 0.0
0.138891 -1.43946e-05 0.0
0.17438 -3.57687e-05 0.0
0.201605 -4.87962e-05 0.0
0.235787 -5.92935e-05 0.0
0.244085 -6.19357e-05 0.0
0.223601 -7.94065e-05 0.0
0.249751 -6.45671e-05 0.0
0.249044 -7.18036e-05 0.0
0.231404 -3.06218e-05 0.0
0.244081 -6.09729e-05 0.0
0 0 0.0
0.0361075 -5.13372e-06 0.0
0.073612 -1.42893e-05 0.0
0.0622478 -1.55886e-05 0.0
0.174371 -3.50186e-05 0.0
0.220162 -4.8373e-05 0.0
0.201595 -4.85013e-05 0.0
0.115549 -2.12266e-05 0.0
0.146677 -3.26362e-05 0.0
0 0 0.0
0.0360876 -3.49573e-06 0.0
0.0693665 -1.12266e-05 0.0
0.0899845 -2.20436e-05 0.0
0.10939 -2.97805e-05 0.0
0.146691 -3.21843e-05 0.0
0.178901 -5.97043e-05 0.0
0.206292 -7.77757e-05 0.0
0.214499 -0.000104441 0.0
0.238526 -9.25756e-05 0.0
0.247349 -9.61922e-05 0.0
0.229606 -0.00011765 0.0
0.226324 -8.27426e-05 0.0
0.249983 -9.64842e-05 0.0
0.246427 -9.37558e-05 0.0
0.23668 -8.8246e-05 0.0
0 0 0.0
0.0322493 -5.76859e-06 0.0
0.0956946 -3.36834e-05 0.0
0.0694261 -2.53352e-05 0.0
0.178877 -5.83169e-05 0.0
0.20627 -7.76617e-05 0.0
0.127478 -4.51496e-05 0.0
0.165875 -7.34935e-05 0.0
0.152327 -5.29636e-05 0.0
0 0 0.0
0.0360801 -4.98699e-06 0.0
0.0621972 -1.54385e-05 0.0
0.0956322 -3.42202e-05 0.0
0.127523 -4.58586e-05 0.0
0.156659 -6.63951e-05 0.0
0.115598 -5.24646e-05 0.0
0.193624 -0.000108831 0.0
0.218139 -0.000137294 0.0
0.240939 -0.000125093 0.0
0.247737 -0.000129469 0.0
0.25 -0.000130634 0.0
0.234396 -0.000158458 0.0
0.229578 -0.000115008 0.0
0.247728 -0.000128741 0.0
0.24092 -0.000124063 0.0
0 0 0.0
0.0344848 -7.94741e-06 0.0
0.103117 -5.14191e-05 0.0
0.0622982 -2.56201e-05 0.0
0.189729 -9.17133e-05 0.0
0.212991 -0.000127368 0.0
0.170538 -9.90101e-05 0.0
0.144333 -7.37907e-05 0.0
0 0 0.0
0.0398996 -8.51001e-06 0.0
0.0997904 -4.6593e-05 0.0
0.0693246 -2.48989e-05 0.0
0.170621 -0.000100338 0.0
0.144418 -7.61625e-05 0.0
0.124372 -7.70043e-05 0.0
0.183645 -0.000126497 0.0
0.204127 -0.000151161 0.0
0.222034 -0.000177543 0.0
0.249109 -0.00017055 0.0
0.244025 -0.000166847 0.0
0.249119 -0.000171013 0.0
0.238547 -0.00020096 0.0
0.234354 -0.000155927 0.0
0.244883 -0.00017919 0.0
0 0 0.0
0.0322881 -8.40352e-06 0.0
0.0940675 -5.39346e-05 0.0
0.0652098 -3.23163e-05 0.0
0.1967 -0.000136131 0.0
0.217875 -0.00016679 0.0
0.177445 -0.000137704 0.0
0.148696 -9.68044e-05 0.0
0.120335 -6.81849e-05 0.0
0 0 0.0
0.0343932 -8.0614e-06 0.0
0.07165 -3.2355e-05 0.0
0.152418 -0.000109858 0.0
0.127606 -9.5342e-05 0.0
0.187572 -0.000156446 0.0
0.211945 -0.000194452 0.0
0.248605 -0.000210632 0.0
0.22568 -0.000219845 0.0
0.249781 -0.000212815 0.0
0.246471 -0.000209806 0.0
0.24206 -0.000245331 0.0
0.238492 -0.000198104 0.0
0 0 0.0
0.0338685 -1.05183e-05 0.0
0.0999825 -7.17614e-05 0.0
0.0695334 -4.29111e-05 0.0
0.206267 -0.000178643 0.0
0.22241 -0.000207916 0.0
0.189986 -0.000184723 0.0
0.168264 -0.000149803 0.0
0.143014 -0.000115513 0.0
0.124203 -8.58191e-05 0.0
0.0970924 -5.79979e-05 0.0
0 0 0.0
0.0360249 -1.01996e-05 0.0
0.0673238 -3.45315e-05 0.0
0.130323 -0.000114948 0.0
0.168474 -0.000153725 0.0
0.199465 -0.000200306 0.0
0.218371 -0.000234627 0.0
0.241994 -0.000242806 0.0
0.249998 -0.000254945 0.0
0.247989 -0.000251155 0.0
0.229073 -0.000264163 0.0
0.244932 -0.000291122 0.0
0.248737 -0.000268002 0.0
0.234449 -0.000247671 0.0
0 0 0.0
0.036224 -1.35131e-05 0.0
0.122643 -0.000117471 0.0
0.0712132 -5.04867e-05 0.0
0.208359 -0.000216849 0.0
0.225134 -0.000257372 0.0
0.198061 -0.00022403 0.0
0.17774 -0.000186242 0.0
0.146541 -0.000138238 0.0
0.119146 -9.73071e-05 0.0
0.0970626 -6.55298e-05 0.0
0 0 0.0
0.0349448 -1.13746e-05 0.0
0.0672897 -3.87511e-05 0.0
0.152288 -0.000160419 0.0
0.178006 -0.000196034 0.0
0.210106 -0.000247651 0.0
0.244859 -0.00028705 0.0
0.249418 -0.000296194 0.0
0.232215 -0.000310364 0.0
0.244189 -0.000331026 0.0
0.249984 -0.000349439 0.0
0.249127 -0.000312591 0.0
0.235918 -0.000294506 0.0
0.212949 -0.000302811 0.0
0 0 0.0
0.0371498 -1.57517e-05 0.0
0.141092 -0.000163337 0.0
0.0999356 -9.82297e-05 0.0
0.0665795 -4.86573e-05 0.0
0.213641 -0.000261699 0.0
0.186625 -0.000227586 0.0
0.165104 -0.000186092 0.0
0.12226 -0.00011612 0.0
0.0928828 -7.16653e-05 0.0
0 0 0.0
0.0349172 -1.26795e-05 0.0
0.0642429 -4.12284e-05 0.0
0.165581 -0.000205124 0.0
0.186953 -0.000241285 0.0
0.158104 -0.0002144 0.0
0.247091 -0.000334239 0.0
0.248688 -0.000383334 0.0
0.231038 -0.000349292 0.0
0.240513 -0.000370959 0.0
0.248748 -0.000387525 0.0
0.240207 -0.000337441 0.0
0.229266 -0.000329116 0.0
0.199165 -0.000297214 0.0
0.218617 -0.000355127 0.0
0 0 0.0
0.0346346 -1.50627e-05 0.0
0.126145 -0.000157477 0.0
0.0681532 -5.40302e-05 0.0
0.0987918 -0.000105481 0.0
0.208102 -0.000295823 0.0
0.189783 -0.000258639 0.0
0.168152 -0.000215944 0.0
0.140645 -0.000158175 0.0
0.0954318 -8.52232e-05 0.0
0 0 0.0
0.0332633 -1.30725e-05 0.0
0.0660774 -4.95516e-05 0.0
0.183204 -0.000281004 0.0
0.159239 -0.000240099 0.0
0.244899 -0.000391816 0.0
0.249651 -0.000433358 0.0
0.235943 -0.000408989 0.0
0.244842 -0.000428662 0.0
0.249365 -0.000436761 0.0
0.238626 -0.000393094 0.0
0.21844 -0.000352206 0.0
0.203084 -0.000348543 0.0
0.223349 -0.000407635 0.0
0 0 0.0
0.0477819 -2.90182e-05 0.0
0.127891 -0.000178054 0.0
0.0903905 -9.67878e-05 0.0
0.202635 -0.00031504 0.0
0.178 -0.000260982 0.0
0.147924 -0.000198897 0.0
0.118751 -0.000132462 0.0
0.0780562 -7.35811e-05 0.0
0 0 0.0
0.0342441 -1.57858e-05 0.0
0.187809 -0.000335108 0.0
0.160376 -0.000267666 0.0
0.246448 -0.000445494 0.0
0.249983 -0.000486575 0.0
0.240116 -0.000472795 0.0
0.247551 -0.000514788 0.0
0.239864 -0.000446447 0.0
0.227309 -0.000409866 0.0
0.209759 -0.000363676 0.0
0.227698 -0.000465216 0.0
0.210265 -0.000412607 0.0
0 0 0.0
0.0478356 -3.03876e-05 0.0
0.127983 -0.000196349 0.0
0.0904651 -0.000102922 0.0
0.187211 -0.000309897 0.0
0.159666 -0.000247225 0.0
0.0472178 -3.22906e-05 0.0
0.127132 -0.000176221 0.0
0.0896276 -0.000101882 0.0
0 0 0.0
0.187883 -0.000380654 0.0
0.160466 -0.000300984 0.0
0.247409 -0.000502758 0.0
0.249974 -0.000547047 0.0
0.240139 -0.000537202 0.0
0.247556 -0.000581364 0.0
0.227266 -0.000453547 0.0
0.239829 -0.000496074 0.0
0.187151 -0.000342698 0.0
0.209706 -0.000401673 0.0
0.227732 -0.000515921 0.0
0.210326 -0.000470859 0.0
0 0 0.0
0.0478911 -3.04234e-05 0.0
0.128089 -0.00021593 0.0
0.0905658 -0.000109577 0.0
0.127054 -0.000199987 0.0
0.159598 -0.000275599 0.0
0.0471589 -3.79511e-05 0.0
0.0895472 -0.000117184 0.0
0 0 0.0
0.187971 -0.000432773 0.0
0.160572 -0.000339299 0.0
0.247383 -0.00055916 0.0
0.249959 -0.000611585 0.0
0.227768 -0.000574069 0.0
0.240171 -0.00063983 0.0
0.247557 -0.000655224 0.0
0.227224 -0.000487733 0.0
0.239788 -0.000546253 0.0
0.187102 -0.000365754 0.0
0.209648 -0.000437835 0.0
0.210396 -0.000538088 0.0
0 0 0.0
0.0479523 -3.02356e-05 0.0
0.128234 -0.000242799 0.0
0.0906696 -0.000115975 0.0
0.126984 -0.000220569 0.0
0.159525 -0.000303699 0.0
0.0470834 -4.54315e-05 0.0
0.0894577 -0.000135123 0.0
0 0 0.0
0.160697 -0.000385092 0.0
0.1881 -0.000511258 0.0
0.247349 -0.000617937 0.0
0.249936 -0.000681227 0.0
0.240188 -0.000709749 0.0
0.227836 -0.000686141 0.0
0.247551 -0.000736371 0.0
0.239737 -0.000595383 0.0
0.227178 -0.000521429 0.0
0.187035 -0.000394644 0.0
0.209584 -0.000469944 0.0
0.210475 -0.000619604 0.0
0 0 0.0
0.0480106 -3.0747e-05 0.0
0.128362 -0.000270233 0.0
0.0907871 -0.000126467 0.0
0.126899 -0.000245772 0.0
0.15945 -0.000330165 0.0
0 0 0.0
0.0893581 -0.000155439 0.0
0.0470028 -5.33633e-05 0.0
0.188224 -0.000595888 0.0
0.160846 -0.000444749 0.0
0.227879 -0.000770478 0.0
0.247304 -0.000679072 0.0
0.249903 -0.000757035 0.0
0.247541 -0.000807431 0.0
0.240202 -0.00078723 0.0
0.239674 -0.000642844 0.0
0.227113 -0.000558347 0.0
0.186947 -0.000421709 0.0
0.209513 -0.000495605 0.0
0.210564 -0.00071684 0.0
0 0 0.0
0.0480752 -3.39293e-05 0.0
0.0909103 -0.000142797 0.0
0.128535 -0.000315608 0.0
0.1268 -0.000271111 0.0
0.159376 -0.000350681 0.0
0 0 0.0
0.0469016 -6.22838e-05 0.0
0.089263 -0.000172133 0.0
0.188331 -0.000672291 0.0
0.161022 -0.000526154 0.0
0.227918 -0.000869109 0.0
0.240215 -0.000949535 0.0
0.247245 -0.000742071 0.0
0.249854 -0.000838567 0.0
0.247523 -0.000885542 0.0
0.239595 -0.000686711 0.0
0.227036 -0.000588292 0.0
0.186891 -0.000429401 0.0
0.209434 -0.0005096 0.0
0.210662 -0.000838853 0.0
0 0 0.0
0.0481532 -4.06372e-05 0.0
0.12878 -0.000399202 0.0
0.091093 -0.00018178 0.0
0.126727 -0.000282764 0.0
0.159305 -0.000359364 0.0
0.0467988 -6.90101e-05 0.0
0 0 0.0
0.0891419 -0.000187221 0.0
0.161229 -0.000638382 0.0
0.18853 -0.000837448 0.0
0.227986 -0.00106666 0.0
0.240208 -0.00109342 0.0
0.24748 -0.00100194 0.0
0.247122 -0.00083353 0.0
0.249783 -0.00093066 0.0
0.239495 -0.000725139 0.0
0.226908 -0.000610956 0.0
0.186799 -0.000418587 0.0
0.209343 -0.000506588 0.0
0.210766 -0.000993013 0.0
0 0 0.0
0.048252 -5.49131e-05 0.0
0.0913033 -0.000237066 0.0
0.161468 -0.000788374 0.0
0.128994 -0.000489533 0.0
0.126647 -0.000280322 0.0
0.159248 -0.000351651 0.0
0.0466834 -7.31903e-05 0.0
0 0 0.0
0.0890404 -0.000191854 0.0
0.210859 -0.0011522 0.0
0.188664 -0.000970529 0.0
0.240189 -0.00122757 0.0
0.228018 -0.00125967 0.0
0.247378 -0.00119567 0.0
0.249682 -0.00102975 0.0
0.247027 -0.000883603 0.0
0.239365 -0.000754571 0.0
0.226805 -0.000611247 0.0
0.186735 -0.000392639 0.0
0.159173 -0.000305458 0.0
0.209237 -0.000480489 0.0
0 0 0.0
0.0915507 -0.000315493 0.0
0.0483983 -7.64e-05 0.0
0.161686 -0.000951449 0.0
0.129346 -0.000665724 0.0
0.126577 -0.000251041 0.0
0 0 0.0
0.0465685 -7.32238e-05 0.0
0.088933 -0.000177457 0.0
0.210952 -0.00134221 0.0
0.18891 -0.00125737 0.0
0.24015 -0.00137679 0.0
0.228039 -0.00149053 0.0
0.247282 -0.00132377 0.0
0.249538 -0.0011409 0.0
0.246913 -0.000935246 0.0
0.159122 -0.000243025 0.0
0.209129 -0.000435536 0.0
0.239194 -0.000773462 0.0
0.226682 -0.000598273 0.0
0.186642 -0.00032654 0.0
0 0 0.0
0.0485828 -0.000105508 0.0
0.0918923 -0.000433691 0.0
0.161991 -0.00120489 0.0
0.129722 -0.000875678 0.0
0.0888662 -0.000136875 0.0
0.126517 -0.000174304 0.0
0 0 0.0
0.0464633 -6.29824e-05 0.0
0.211051 -0.00161984 0.0
0.189119 -0.00155352 0.0
0.240069 -0.00159925 0.0
0.22803 -0.00176583 0.0
0.247168 -0.00146471 0.0
0.249351 -0.00126402 0.0
0.246622 -0.00102487 0.0
0.159065 -0.000120077 0.0
0.238977 -0.000780684 0.0
0.208998 -0.000366741 0.0
0.226426 -0.000540535 0.0
0.186509 -0.000183526 0.0
0 0 0.0
0.0924029 -0.000602713 0.0
0.0488577 -0.000156963 0.0
0.16241 -0.00160115 0.0
0.130185 -0.00114558 0.0
0.0888451 -7.22478e-05 0.0
0.126495 -6.38414e-05 0.0
0 0 0.0
0.046386 -5.08998e-05 0.0
0.189335 -0.00191852 0.0
0.211139 -0.00195773 0.0
0.239943 -0.00186437 0.0
0.246966 -0.0016668 0.0
0.227985 -0.00209182 0.0
0.249096 -0.00139938 0.0
0.246336 -0.0010924 0.0
0.238695 -0.000776627 0.0
0.248427 -0.00167857 0.0
0.159004 5.54229e-05 0.0
0.226165 -0.0004686 0.0
0.208739 -0.000207031 0.0
0.186401 -5.99369e-05 0.0
0 0 0.0
0.0929402 -0.000777969 0.0
0.0492398 -0.000213907 0.0
0.16272 -0.00192424 0.0
0.130746 -0.00147365 0.0
0.0888826 2.30158e-05 0.0
0.126503 7.05026e-05 0.0
0 0 0.0
0.0463618 -2.67533e-05 0.0
0.189554 -0.00235364 0.0
0.211199 -0.00236051 0.0
0.239749 -0.00216223 0.0
0.227892 -0.0024768 0.0
0.246539 -0.00201741 0.0
0.248073 -0.00133198 0.0
0.242853 -0.000951978 0.0
0.232773 -0.000571564 0.0
0.248567 -0.00163401 0.0
0.158951 0.000289836 0.0
0.217823 -0.000219615 0.0
0.203392 1.70507e-05 0.0
0.186196 0.000210327 0.0
0 0 0.0
0.0936875 -0.00100731 0.0
0.049728 -0.000281297 0.0
0.163162 -0.00239173 0.0
0.131425 -0.00185769 0.0
0.126586 0.000309527 0.0
0.0890097 0.000148956 0.0
0 0 0.0
0.0464091 1.3292e-05 0.0
0.189771 -0.00286212 0.0
0.211228 -0.00282923 0.0
0.246141 -0.00229078 0.0
0.227738 -0.00291446 0.0
0.239495 -0.00251337 0.0
0.245741 -0.00120032 0.0
0.238078 -0.000739696 0.0
0.225582 -0.000292534 0.0
0.24809 -0.00181297 0.0
0.158893 0.000573094 0.0
0.208242 0.000109592 0.0
0.185971 0.000480596 0.0
0 0 0.0
0.0503241 -0.000355482 0.0
0.0946002 -0.00126193 0.0
0.132119 -0.00222399 0.0
0.189989 -0.00343609 0.0
0.163656 -0.00292012 0.0
0.126721 0.000564269 0.0
0.0892363 0.000299372 0.0
0.0465172 5.84316e-05 0.0
0 0 0.0
0.227561 -0.00332313 0.0
0.211215 -0.00336591 0.0
0.24576 -0.00253126 0.0
0.239145 -0.00291079 0.0
0.22511 -0.000150888 0.0
0.245229 -0.00127105 0.0
0.237565 -0.000703618 0.0
0.247507 -0.00201237 0.0
0.18571 0.000798057 0.0
0.158846 0.000977342 0.0
0.207726 0.000419934 0.0
0 0 0.0
0.0511085 -0.000444097 0.0
0.0958471 -0.00155601 0.0
0.133078 -0.00269638 0.0
0.190148 -0.00391992 0.0
0.164355 -0.00363805 0.0
0.126946 0.000850028 0.0
0.0896338 0.000492056 0.0
0.0467371 0.00011222 0.0
0 0 0.0
0.12728 0.0011614 0.0
0.22733 -0.00375864 0.0
0.211132 -0.0041624 0.0
0.238507 -0.00354942 0.0
0.245315 -0.0027896 0.0
0.224303 7.31168e-05 0.0
0.236938 -0.000657926 0.0
0.244598 -0.00135266 0.0
0.246793 -0.00223947 0.0
0.185394 0.00115362 0.0
0.158813 0.00134272 0.0
0.207208 0.000689432 0.0
0 0 0.0
0.0520425 -0.000526412 0.0
0.0972124 -0.00184863 0.0
0.134196 -0.00319043 0.0
0.190371 -0.00459625 0.0
0.165024 -0.00428011 0.0
0.0470314 0.000161804 0.0
0.0901275 0.000665778 0.0
0 0 0.0
0.127626 0.00142926 0.0
0.226972 -0.00435139 0.0
0.211005 -0.00484015 0.0
0.237909 -0.00405824 0.0
0.244625 -0.00316632 0.0
0.223688 0.000210434 0.0
0.236187 -0.000612927 0.0
0.245948 -0.00249147 0.0
0.243463 -0.00149342 0.0
0.185116 0.00143165 0.0
0.158809 0.00171702 0.0
0.206606 0.000981751 0.0
0 0 0.0
0.0531576 -0.0006238 0.0
0.0987989 -0.00214847 0.0
0.135716 -0.00378428 0.0
0.19067 -0.00551609 0.0
0.210836 -0.00557344 0.0
0.165806 -0.00495577 0.0
0.0474323 0.000214277 0.0
0.0907618 0.000837471 0.0
0 0 0.0
0.128147 0.00172723 0.0
0.226358 -0.00522615 0.0
0.237355 -0.00450649 0.0
0.24381 -0.00357927 0.0
0.245212 -0.00270768 0.0
0.223 0.000361542 0.0
0.235283 -0.000585377 0.0
0.242485 -0.00161103 0.0
0.158853 0.00209252 0.0
0.184714 0.00180295 0.0
0.205892 0.00127617 0.0
0 0 0.0
0.0544806 -0.000732521 0.0
0.100625 -0.00245317 0.0
0.137263 -0.00431039 0.0
0.190862 -0.00609923 0.0
0.210619 -0.00634616 0.0
0.16671 -0.00565472 0.0
0.0479368 0.00025637 0.0
0.091545 0.00100135 0.0
0 0 0.0
0.158902 0.0023754 0.0
0.0924545 0.00115034 0.0
0.12887 0.00203056 0.0
0.22578 -0.00595669 0.0
0.236715 -0.00497458 0.0
0.242377 -0.00425217 0.0
0.244397 -0.00293577 0.0
0.241635 -0.00172736 0.0
0.222039 0.0005368 0.0
0.233789 -0.000557557 0.0
0.184155 0.0022582 0.0
0.205205 0.00151648 0.0
0.225253 -0.00657678 0.0
0 0 0.0
0.0559229 -0.000822354 0.0
0.139044 -0.00483252 0.0
0.102666 -0.00275567 0.0
0.210373 -0.00717517 0.0
0.191252 -0.00710783 0.0
0.167746 -0.00636215 0.0
0.0485784 0.000308617 0.0
0 0 0.0
0.183782 0.0024977 0.0
0.159033 0.00269226 0.0
0.129651 0.00223268 0.0
0.0491774 0.000345796 0.0
0.0934768 0.00125347 0.0
0.23582 -0.00561087 0.0
0.241473 -0.00465658 0.0
0.243162 -0.00328008 0.0
0.242131 -0.0035718 0.0
0.240674 -0.00185075 0.0
0.220924 0.000682921 0.0
0.2325 -0.000570887 0.0
0.204447 0.00175071 0.0
0.224651 -0.00723448 0.0
0.0574251 -0.000910955 0.0
0 0 0.0
0.140701 -0.0052686 0.0
0.104921 -0.0030378 0.0
0.210103 -0.00803806 0.0
0.191524 -0.00773164 0.0
0.16895 -0.00708013 0.0
0 0 0.0
0.183301 0.00279624 0.0
0.159261 0.00297817 0.0
0.130367 0.00236845 0.0
0.0498656 0.000354904 0.0
0.0945536 0.00131443 0.0
0.234337 -0.00659792 0.0
0.240494 -0.00508063 0.0
0.240998 -0.00387793 0.0
0.238626 -0.00213612 0.0
0.219684 0.000813668 0.0
0.23108 -0.000611139 0.0
0.203168 0.00205037 0.0
0.223866 -0.0080853 0.0
0 0 0.0
0.0592033 -0.000988799 0.0
0.142867 -0.00576925 0.0
0.107156 -0.00328631 0.0
0.170312 -0.0077858 0.0
0.209824 -0.00895011 0.0
0.192094 -0.00878818 0.0
0 0 0.0
0 0 0.0
0.182799 0.00300742 0.0
0.159564 0.00311954 0.0
0.13132 0.00244025 0.0
0.0956938 0.00131955 0.0
0.0505843 0.000348427 0.0
0.233127 -0.00736573 0.0
0.239075 -0.00568592 0.0
0.229807 -0.000672948 0.0
0.239347 -0.00433607 0.0
0.236974 -0.00239875 0.0
0.218297 0.000895028 0.0
0.20208 0.00222142 0.0
0.232063 -0.00803161 0.0
0.222992 -0.00898722 0.0
0.0611566 -0.00107783 0.0
0.109828 -0.0035514 0.0
0.145265 -0.00626787 0.0
0.171573 -0.00836279 0.0
0.209565 -0.0098894 0.0
0.192508 -0.00945346 0.0
0 0 0.0
0 0 0.0
0.15983 0.00316193 0.0
0.182219 0.00315887 0.0
0.0967115 0.00127819 0.0
0.132468 0.00240774 0.0
0.0512541 0.000330962 0.0
0.236753 -0.00663753 0.0
0.237501 -0.00485464 0.0
0.20095 0.00231755 0.0
0.228437 -0.000756348 0.0
0.235591 -0.00263747 0.0
0.216231 0.000927777 0.0
0.230932 -0.00870972 0.0
0.221742 -0.0102841 0.0
0.20932 -0.0108705 0.0
0.0632974 -0.00119182 0.0
0.112708 -0.00382245 0.0
0.148289 -0.00682861 0.0
0.173289 -0.00906538 0.0
0.193359 -0.0105636 0.0
0 0 0.0
0 0 0.0
0.160352 0.00307472 0.0
0.181811 0.00313152 0.0
0.0979393 0.00114873 0.0
0.133522 0.00226126 0.0
0.0519473 0.000301755 0.0
0.234086 -0.00290581 0.0
0.235485 -0.00542088 0.0
0.234936 -0.00739108 0.0
0.199787 0.00232679 0.0
0.226583 -0.000924567 0.0
0.214555 0.000857129 0.0
0.181476 0.00296276 0.0
0.228758 -0.0100043 0.0
0 0 0.0
0.220726 -0.011325 0.0
0.194211 -0.0114807 0.0
0.209118 -0.0118835 0.0
0.0654142 -0.00127579 0.0
0.150781 -0.00725201 0.0
0.116106 -0.00415018 0.0
0.175642 -0.00994555 0.0
0 0 0.0
0 0 0.0
0 0 0.0
0 0 0.0
0 0 0.0
0.052492 0.000250956 0.0
0.13459 0.00199026 0.0
0.160887 0.0028289 0.0
0.0988525 0.000991561 0.0
0.231988 -0.0032903 0.0
0.233283 -0.00606042 0.0
0.232971 -0.00820605 0.0
0.213107 0.000745156 0.0
0.198606 0.00220601 0.0
0.223715 -0.00126597 0.0
0.197632 0.00199054 0.0
0.181261 0.00273372 0.0
0.227055 -0.0110196 0.0
0.219681 -0.0123945 0.0
0 0 0.0
4.47072e-05 1.20728e-06 0.0
0 0 0.0
-0.000594903 0.0047872 0.0
0.20899 -0.0129377 0.0
0.194955 -0.0121765 0.0
0.0679224 -0.00139557 0.0
0.153839 -0.00777201 0.0
0.119411 -0.0044864 0.0
0.177865 -0.0107153 0.0
0 0 0.0
0 0 0.0
0 0 0.0
-0.000495471 0.0030796 0.0
-0.000164926 0.000218825 0.0
-0.000294805 0.000275643 0.0
0 0 0.0
0.0529065 0.000173528 0.0
0.135424 0.00168365 0.0
0.161453 0.00242818 0.0
0.0997805 0.000739733 0.0
0.229724 -0.00376155 0.0
0.230903 -0.00676765 0.0
0.230841 -0.00907665 0.0
0.211635 0.000549836 0.0
0.221966 -0.00155427 0.0
0.196685 0.00166448 0.0
0.181 0.00211593 0.0
0.225262 -0.0120749 0.0
0.220681 -0.0131442 0.0
0.214226 -0.0137329 0.0
0 0 0.0
-0.000197903 0.000144312 0.0
0 0 0.0
0 0 0.0
-0.00200072 0.0096442 0.0
-0.00216868 0.00704721 0.0
0.205998 -0.0138 0.0
0.196061 -0.0131554 0.0
0.122569 -0.00484049 0.0
0.0704011 -0.00154984 0.0
0.157116 -0.00837015 0.0
0.180239 -0.011539 0.0
0 0 0.0
-0.00108277 0.00212662 0.0
-0.00167925 0.00430333 0.0
-0.000961502 0.00118888 0.0
-0.00123314 0.000901727 0.0
0 0 0.0
0.0532013 9.07179e-05 0.0
0.136315 0.001214 0.0
0.162028 0.00187566 0.0
0.100434 0.000450666 0.0
0.227284 -0.00430526 0.0
0.228365 -0.00754775 0.0
0.228563 -0.0100106 0.0
0.209138 2.16399e-05 0.0
0.220136 -0.00189665 0.0
0.19564 0.00108158 0.0
0.162625 0.00114238 0.0
0.180916 0.00138991 0.0
0.223765 -0.0129424 0.0
0.217914 -0.0142748 0.0
0.208905 -0.0148525 0.0
0 0 0.0
-0.00113084 0.000392601 0.0
0 0 0.0
0 0 0.0
0 0 0.0
0 0 0.0
-0.00419431 0.00735815 0.0
-0.000473754 0.00769285 0.0
-0.00189056 0.011735 0.0
-0.00457523 0.014951 0.0
-0.00423244 0.0110649 0.0
0 0 0.0
4.94956e-05 0.00938537 0.0
0.197612 -0.0144934 0.0
0.182302 -0.0122894 0.0
0 0 0.0
0.0734348 -0.00179035 0.0
0.126328 -0.00532302 0.0
0.161161 -0.00928246 0.0
0 0 0.0
0 0 0.0
-0.00297263 0.00418188 0.0
-0.00275372 0.00255876 0.0
-0.00302321 0.00160186 0.0
0 0 0.0
0.053308 -9.75665e-06 0.0
0.137131 0.000552041 0.0
0.10081 0.000123967 0.0
0.162972 0.000482838 0.0