# vtk DataFile Version 3.0
Mesh NS-CD Problem
ASCII
DATASET UNSTRUCTURED_GRID
POINTS 10839 float
-2 0.3 0.0
-2 0.4 0.0
-2 0.35 0.0
-2 0.45 0.0
-2 0.5 0.0
-2 0.55 0.0
-2 0 0.0
-2 0.05 0.0
-2 0.85 0.0
-2 0.9 0.0
-2 0.1 0.0
-2 0.15 0.0
-2 0.25 0.0
-2 0.2 0.0
-1.96653 0.266667 0.0
-1.96524 0.415385 0.0
-1.96485 0.315 0.0
-1.96348 0.363636 0.0
-1.96414 0.464286 0.0
-2 0.6 0.0
-1.96538 0.584615 0.0
-1.96538 0.538462 0.0
-1.94979 0 0.0
-1.96653 0.0666666 0.0
-1.93306 0.0333333 0.0
-2 0.8 0.0
-2 0.75 0.0
-2 0.7 0.0
-2 0.65 0.0
-1.96249 0.7375 0.0
-1.96666 0.833333 0.0
-2 1 0.0
-2 0.95 0.0
-1.96249 0.8875 0.0
-1.96666 0.933333 0.0
-1.96234 0.1125 0.0
-1.96653 0.166667 0.0
-1.93724 0.225 0.0
-1.92971 0.28 0.0
-1.93048 0.380769 0.0
-1.93048 0.423077 0.0
-1.89958 0.3375 0.0
-1.9292 0.484203 0.0
-1.92117 0.530907 0.0
-1.96363 0.636364 0.0
-1.93076 0.576923 0.0
-1.89958 0 0.0
-1.88703 0.0375 0.0
-1.90963 0.08 0.0
-1.86611 0.0666666 0.0
-1.93749 0.775 0.0
-1.93635 0.672727 0.0
-1.92999 0.72 0.0
-1.93332 0.866667 0.0
-1.92856 0.821429 0.0
-1.94999 1 0.0
-1.92499 0.9625 0.0
-1.92499 0.925 0.0
-1.89998 0.9 0.0
-1.89958 0.125 0.0
-1.92827 0.178571 0.0
-1.89958 0.233333 0.0
-1.89045 0.290909 0.0
-1.86096 0.311538 0.0
-1.89241 0.392857 0.0
-1.89334 0.448489 0.0
-1.85655 0.357143 0.0
-1.89614 0.653846 0.0
-1.89427 0.504121 0.0
-1.8952 0.559753 0.0
-1.89614 0.615385 0.0
-1.84937 0 0.0
-1.83264 0.0333333 0.0
-1.85655 0.107143 0.0
-1.81172 0.075 0.0
-1.89998 0.766667 0.0
-1.89089 0.709091 0.0
-1.87498 0.85 0.0
-1.85998 0.79 0.0
-1.88748 0.8125 0.0
-1.89998 1 0.0
-1.88748 0.9625 0.0
-1.86664 0.933333 0.0
-1.85712 0.892857 0.0
-1.87448 0.15 0.0
-1.86611 0.194444 0.0
-1.83264 0.133333 0.0
-1.83264 0.2625 0.0
-1.82068 0.321429 0.0
-1.85664 0.404762 0.0
-1.85674 0.452381 0.0
-1.85683 0.5 0.0
-1.81184 0.375 0.0
-1.85712 0.642857 0.0
-1.85693 0.547619 0.0
-1.85702 0.595238 0.0
-1.79917 0 0.0
-1.78482 0.0357143 0.0
-1.79917 0.116667 0.0
-1.76569 0.0666666 0.0
-1.85452 0.745455 0.0
-1.82689 0.692308 0.0
-1.81815 0.781818 0.0
-1.82497 0.825 0.0
-1.84997 1 0.0
-1.8333 0.958333 0.0
-1.81247 0.8875 0.0
-1.81247 0.925 0.0
-1.81742 0.218182 0.0
-1.82427 0.175 0.0
-1.77634 0.145455 0.0
-1.79144 0.242308 0.0
-1.78482 0.285714 0.0
-1.77469 0.332653 0.0
-1.81215 0.529762 0.0
-1.81194 0.422619 0.0
-1.81203 0.470238 0.0
-1.76714 0.392857 0.0
-1.81234 0.625 0.0
-1.79732 0.571429 0.0
-1.74896 0 0.0
-1.73222 0.0333333 0.0
-1.75398 0.105 0.0
-1.71883 0.07 0.0
-1.79227 0.730769 0.0
-1.78007 0.679121 0.0
-1.75765 0.769231 0.0
-1.78178 0.818182 0.0
-1.78996 0.86 0.0
-1.79996 1 0.0
-1.78568 0.964286 0.0
-1.76663 0.922222 0.0
-1.76569 0.1875 0.0
-1.73222 0.15 0.0
-1.74896 0.25 0.0
-1.73714 0.304762 0.0
-1.76743 0.537202 0.0
-1.72869 0.343878 0.0
-1.76732 0.485119 0.0
-1.76723 0.440476 0.0
-1.72243 0.410714 0.0
-1.76757 0.607143 0.0
-1.69875 0 0.0
-1.68369 0.035 0.0
-1.69875 0.1125 0.0
-1.66528 0.075 0.0
-1.74341 0.708974 0.0
-1.73324 0.665934 0.0
-1.70441 0.74478 0.0
-1.71423 0.785714 0.0
-1.72303 0.826923 0.0
-1.74541 0.854545 0.0
-1.74541 0.890909 0.0
-1.74996 1 0.0
-1.73745 0.9625 0.0
-1.71359 0.927273 0.0
-1.68716 0.153846 0.0
-1.7131 0.214286 0.0
-1.70725 0.275 0.0
-1.69712 0.321939 0.0
-1.72279 0.589286 0.0
-1.72261 0.5 0.0
-1.7227 0.544643 0.0
-1.6827 0.355102 0.0
-1.67773 0.428571 0.0
-1.70763 0.464286 0.0
-1.70369 0.62449 0.0
-1.64854 0 0.0
-1.63181 0.0375 0.0
-1.64137 0.142857 0.0
-1.61764 0.0769231 0.0
-1.69458 0.703846 0.0
-1.67471 0.657437 0.0
-1.66143 0.727637 0.0
-1.67125 0.768571 0.0
-1.67851 0.821429 0.0
-1.68841 0.861538 0.0
-1.70904 0.890909 0.0
-1.69995 1 0.0
-1.68176 0.963636 0.0
-1.67267 0.927273 0.0
-1.65427 0.187143 0.0
-1.66718 0.231429 0.0
-1.66554 0.3 0.0
-1.67802 0.571429 0.0
-1.67792 0.523809 0.0
-1.6367 0.366327 0.0
-1.63682 0.423469 0.0
-1.62568 0.502976 0.0
-1.6629 0.470238 0.0
-1.65254 0.618367 0.0
-1.6059 0.307143 0.0
-1.59833 0 0.0
-1.58288 0.0384615 0.0
-1.60563 0.169643 0.0
-1.58179 0.112271 0.0
-1.56964 0.0714286 0.0
-1.64574 0.690385 0.0
-1.62827 0.751429 0.0
-1.63371 0.791071 0.0
-1.64279 0.857143 0.0
-1.65378 0.896154 0.0
-1.64994 1 0.0
-1.6363 0.963636 0.0
-1.61916 0.930769 0.0
-1.61345 0.209107 0.0
-1.62126 0.248571 0.0
-1.56989 0.196429 0.0
-1.63324 0.553571 0.0
-1.58846 0.535714 0.0
-1.59408 0.361905 0.0
-1.59161 0.402211 0.0
-1.58832 0.464286 0.0
-1.61504 0.598581 0.0
-1.59683 0.64359 0.0
-1.57899 0.274107 0.0
-1.56176 0.322381 0.0
-1.54812 0 0.0
-1.53378 0.0357143 0.0
-1.54593 0.147619 0.0
-1.53385 0.0732143 0.0
-1.53393 0.110714 0.0
-1.58522 0.704286 0.0
-1.58709 0.745 0.0
-1.58896 0.785714 0.0
-1.60695 0.830357 0.0
-1.60707 0.892857 0.0
-1.59993 1 0.0
-1.58454 0.965385 0.0
-1.57135 0.928571 0.0
-1.55209 0.241071 0.0
-1.5291 0.198214 0.0
-1.56936 0.570918 0.0
-1.54369 0.517857 0.0
-1.5464 0.380952 0.0
-1.54564 0.427721 0.0
-1.54488 0.47449 0.0
-1.55026 0.606122 0.0
-1.54222 0.677143 0.0
-1.52943 0.282857 0.0
-1.52143 0.33619 0.0
-1.49792 0 0.0
-1.49802 0.05 0.0
-1.49822 0.15 0.0
-1.49312 0.1 0.0
-1.5423 0.717143 0.0
-1.54419 0.767857 0.0
-1.54727 0.819048 0.0
-1.57122 0.861905 0.0
-1.53553 0.914286 0.0
-1.54992 1 0.0
-1.53563 0.964286 0.0
-1.49842 0.25 0.0
-1.48831 0.2 0.0
-1.5214 0.558929 0.0
-1.49891 0.5 0.0
-1.49871 0.4 0.0
-1.47631 0.45 0.0
-1.49911 0.6 0.0
-1.49921 0.65 0.0
-1.49931 0.7 0.0
-1.48111 0.35 0.0
-1.48351 0.3 0.0
-1.44771 0 0.0
-1.44782 0.05 0.0
-1.44804 0.15 0.0
-1.44793 0.1 0.0
-1.49941 0.75 0.0
-1.49951 0.8 0.0
-1.49981 0.95 0.0
-1.49961 0.85 0.0
-1.49971 0.9 0.0
-1.49991 1 0.0
-1.44826 0.25 0.0
-1.43815 0.2 0.0
-1.47151 0.55 0.0
-1.44881 0.5 0.0
-1.44859 0.4 0.0
-1.42619 0.45 0.0
-1.44913 0.65 0.0
-1.44902 0.6 0.0
-1.44935 0.75 0.0
-1.44924 0.7 0.0
-1.43972 0.35 0.0
-1.43336 0.3 0.0
-1.3975 0 0.0
-1.39762 0.05 0.0
-1.39786 0.15 0.0
-1.39274 0.1 0.0
-1.44957 0.85 0.0
-1.44946 0.8 0.0
-1.4523 0.95 0.0
-1.44968 0.9 0.0
-1.4499 1 0.0
-1.3981 0.25 0.0
-1.38798 0.2 0.0
-1.42141 0.55 0.0
-1.3987 0.5 0.0
-1.39834 0.35 0.0
-1.37845 0.4 0.0
-1.37607 0.45 0.0
-1.40784 0.65 0.0
-1.39894 0.6 0.0
-1.41185 0.75 0.0
-1.39918 0.7 0.0
-1.38322 0.3 0.0
-1.34729 0 0.0
-1.34492 0.05 0.0
-1.34018 0.15 0.0
-1.34255 0.1 0.0
-1.40707 0.85 0.0
-1.39941 0.8 0.0
-1.39977 0.95 0.0
-1.39965 0.9 0.0
-1.39989 1 0.0
-1.33781 0.2 0.0
-1.33544 0.25 0.0
-1.37131 0.55 0.0
-1.34859 0.5 0.0
-1.33833 0.4 0.0
-1.3307 0.35 0.0
-1.32595 0.45 0.0
-1.34885 0.6 0.0
-1.36655 0.65 0.0
-1.36179 0.75 0.0
-1.34911 0.7 0.0
-1.33307 0.3 0.0
-1.29708 0 0.0
-1.29722 0.05 0.0
-1.2975 0.15 0.0
-1.29236 0.1 0.0
-1.35703 0.85 0.0
-1.34937 0.8 0.0
-1.34988 1 0.0
-1.34962 0.9 0.0
-1.35226 0.95 0.0
-1.28528 0.25 0.0
-1.28764 0.2 0.0
-1.28931 0.35 0.0
-1.32121 0.55 0.0
-1.29848 0.5 0.0
-1.28709 0.45 0.0
-1.2982 0.4 0.0
-1.29876 0.6 0.0
-1.31647 0.65 0.0
-1.29918 0.75 0.0
-1.29904 0.7 0.0
-1.28292 0.3 0.0
-1.24687 0 0.0
-1.24702 0.05 0.0
-1.24717 0.1 0.0
-1.24732 0.15 0.0
-1.29946 0.85 0.0
-1.29932 0.8 0.0
-1.29987 1 0.0
-1.29974 0.95 0.0
-1.30462 0.9 0.0
-1.24762 0.25 0.0
-1.23747 0.2 0.0
-1.24792 0.35 0.0
-1.22807 0.4 0.0
-1.27111 0.55 0.0
-1.24837 0.5 0.0
-1.24822 0.45 0.0
-1.24867 0.6 0.0
-1.26639 0.65 0.0
-1.26167 0.75 0.0
-1.24897 0.7 0.0
-1.23277 0.3 0.0
-1.19667 0 0.0
-1.19683 0.05 0.0
-1.18964 0.15 0.0
-1.19198 0.1 0.0
-1.25695 0.85 0.0
-1.24927 0.8 0.0
-1.25223 0.95 0.0
-1.24987 1 0.0
-1.24957 0.9 0.0
-1.1873 0.2 0.0
-1.18496 0.25 0.0
-1.18028 0.35 0.0
-1.17794 0.4 0.0
-1.1981 0.45 0.0
-1.19842 0.55 0.0
-1.19826 0.5 0.0
-1.19858 0.6 0.0
-1.19874 0.65 0.0
-1.19906 0.75 0.0
-1.1989 0.7 0.0
-1.18262 0.3 0.0
-1.14646 0 0.0
-1.14663 0.05 0.0
-1.1418 0.1 0.0
-1.13713 0.2 0.0
-1.14697 0.15 0.0
-1.20691 0.85 0.0
-1.20926 0.8 0.0
-1.20221 0.95 0.0
-1.19986 1 0.0
-1.20456 0.9 0.0
-1.13997 0.3 0.0
-1.14731 0.25 0.0
-1.13781 0.4 0.0
-1.13014 0.35 0.0
-1.12548 0.45 0.0
-1.14815 0.5 0.0
-1.15962 0.55 0.0
-1.14849 0.6 0.0
-1.15745 0.65 0.0
-1.16155 0.75 0.0
-1.14917 0.8 0.0
-1.14883 0.7 0.0
-1.09625 0 0.0
-1.09661 0.1 0.0
-1.09393 0.05 0.0
-1.09697 0.2 0.0
-1.08929 0.15 0.0
-1.15687 0.85 0.0
-1.14985 1 0.0
-1.15219 0.95 0.0
-1.14951 0.9 0.0
-1.09733 0.3 0.0
-1.08465 0.25 0.0
-1.09769 0.4 0.0
-1.08 0.35 0.0
-1.08661 0.45 0.0
-1.09804 0.5 0.0
-1.12082 0.55 0.0
-1.10916 0.8 0.0
-1.10629 0.7 0.0
-1.0984 0.6 0.0
-1.11616 0.65 0.0
-1.11149 0.75 0.0
-1.04604 0 0.0
-1.04623 0.05 0.0
-1.04642 0.1 0.0
-1.0468 0.2 0.0
-1.03911 0.15 0.0
-1.09948 0.9 0.0
-1.0993 0.85 0.0
-1.09984 1 0.0
-1.09966 0.95 0.0
-1.04718 0.3 0.0
-1.03449 0.25 0.0
-1.04756 0.4 0.0
-1.02986 0.35 0.0
-1.04775 0.45 0.0
-1.04794 0.5 0.0
-1.04813 0.55 0.0
-1.05911 0.8 0.0
-1.04831 0.6 0.0
-1.06376 0.7 0.0
-1.0485 0.65 0.0
-1.04888 0.75 0.0
-0.995833 0 0.0
-0.991231 0.1 0.0
-0.996033 0.05 0.0
-0.986629 0.2 0.0
-0.98893 0.15 0.0
-1.05447 0.9 0.0
-1.04926 0.85 0.0
-1.04983 1 0.0
-1.04964 0.95 0.0
-0.984328 0.25 0.0
-0.99703 0.3 0.0
-0.997429 0.4 0.0
-0.997628 0.45 0.0
-0.979726 0.35 0.0
-0.997827 0.5 0.0
-0.998027 0.55 0.0
-0.998226 0.6 0.0
-0.961416 0.475 0.0
-1.00907 0.8 0.0
-0.998426 0.65 0.0
-0.998625 0.7 0.0
-1.01138 0.75 0.0
-0.945625 0 0.0
-0.946044 0.1 0.0
-0.943334 0.05 0.0
-0.946463 0.2 0.0
-0.938752 0.15 0.0
-1.00444 0.9 0.0
-1.00675 0.85 0.0
-0.999821 1 0.0
-1.00213 0.95 0.0
-0.93417 0.25 0.0
-0.946881 0.3 0.0
-0.9473 0.4 0.0
-0.929588 0.35 0.0
-0.925005 0.45 0.0
-0.960371 0.525 0.0
-0.959325 0.575 0.0
-0.958279 0.625 0.0
-0.922714 0.5 0.0
-0.959017 0.8 0.0
-0.957233 0.675 0.0
-0.952999 0.7125 0.0
-0.948766 0.75 0.0
-0.895417 0 0.0
-0.895855 0.1 0.0
-0.893136 0.05 0.0
-0.896294 0.2 0.0
-0.888573 0.15 0.0
-0.949184 0.85 0.0
-0.954415 0.9 0.0
-0.949812 1 0.0
-0.949603 0.95 0.0
-0.884011 0.25 0.0
-0.896733 0.3 0.0
-0.874887 0.45 0.0
-0.879449 0.35 0.0
-0.897171 0.4 0.0
-0.920423 0.55 0.0
-0.918132 0.6 0.0
-0.915841 0.65 0.0
-0.872606 0.5 0.0
-0.908968 0.8 0.0
-0.91355 0.7 0.0
-0.898707 0.75 0.0
-0.845208 0 0.0
-0.845438 0.05 0.0
-0.845667 0.1 0.0
-0.845896 0.15 0.0
-0.833853 0.25 0.0
-0.846126 0.2 0.0
-0.899146 0.85 0.0
-0.904386 0.9 0.0
-0.899584 0.95 0.0
-0.899804 1 0.0
-0.838062 0.35 0.0
[...]
POINT_DATA 10839
VECTORS Velocity float
0.21 0 0.0
0.24 0 0.0
0.2275 0 0.0
0.2475 0 0.0
0.25 0 0.0
0.2475 0 0.0
0 0 0.0
0.0475 0 0.0
0.1275 0 0.0
0.09 0 0.0
0.09 0 0.0
0.1275 0 0.0
0.1875 0 0.0
0.16 0 0.0
0.195557 -2.08757e-05 0.0
0.242841 -2.75637e-05 0.0
0.215776 -2.46872e-05 0.0
0.231406 -2.75438e-05 0.0
0.248724 -2.87806e-05 0.0
0.24 0 0.0
0.24284 -2.59194e-05 0.0
0.24852 -2.71244e-05 0.0
0 0 0.0
0.0622237 -3.65842e-06 0.0
0.0322264 -2.41097e-06 0.0
0.16 0 0.0
0.1875 0 0.0
0.21 0 0.0
0.2275 0 0.0
0.193592 -2.10426e-05 0.0
0.138888 -1.20094e-05 0.0
0 0 0.0
0.0475 0 0.0
0.099842 -8.56658e-06 0.0
0.0622208 -3.62717e-06 0.0
0.0998459 -9.49108e-06 0.0
0.13889 -1.31878e-05 0.0
0.174379 -3.29949e-05 0.0
0.201605 -4.50284e-05 0.0
0.235786 -5.37698e-05 0.0
0.244084 -5.54473e-05 0.0
0.2236 -7.30121e-05 0.0
0.24975 -5.64737e-05 0.0
0.249043 -6.16831e-05 0.0
0.231404 -2.56628e-05 0.0
0.244081 -5.14963e-05 0.0
0 0 0.0
0.0361062 -4.683e-06 0.0
0.073611 -1.30205e-05 0.0
0.0622456 -1.43419e-05 0.0
0.174371 -2.90071e-05 0.0
0.220163 -4.00067e-05 0.0
0.201596 -3.99017e-05 0.0
0.11555 -1.79461e-05 0.0
0.146678 -2.71749e-05 0.0
0 0 0.0
0.0360884 -3.06577e-06 0.0
0.0693678 -9.67383e-06 0.0
0.0899871 -1.86065e-05 0.0
0.109389 -2.73427e-05 0.0
0.14669 -2.96505e-05 0.0
0.1789 -5.5436e-05 0.0
0.206291 -7.22195e-05 0.0
0.214497 -9.73454e-05 0.0
0.238524 -8.40089e-05 0.0
0.247347 -8.5443e-05 0.0
0.229602 -0.000108652 0.0
0.226325 -6.77585e-05 0.0
0.249981 -8.3503e-05 0.0
0.246425 -7.92335e-05 0.0
0.23668 -7.31656e-05 0.0
0 0 0.0
0.032247 -5.37922e-06 0.0
0.0956922 -3.10767e-05 0.0
0.069422 -2.34978e-05 0.0
0.178879 -4.76259e-05 0.0
0.206272 -6.30558e-05 0.0
0.127482 -3.72078e-05 0.0
0.16588 -5.93327e-05 0.0
0.15233 -4.34377e-05 0.0
0 0 0.0
0.0360819 -4.27656e-06 0.0
0.0622011 -1.29755e-05 0.0
0.0956377 -2.83711e-05 0.0
0.127521 -4.23792e-05 0.0
0.156658 -6.18324e-05 0.0
0.115595 -4.86308e-05 0.0
0.193622 -0.000102598 0.0
0.218135 -0.000129269 0.0
0.240935 -0.000113551 0.0
0.247733 -0.000115001 0.0
0.249996 -0.000113135 0.0
0.234389 -0.000147119 0.0
0.229579 -9.32036e-05 0.0
0.247725 -0.000108676 0.0
0.240919 -0.000102288 0.0
0 0 0.0
0.0344811 -7.4213e-06 0.0
0.103112 -4.75981e-05 0.0
0.0622919 -2.33031e-05 0.0
0.189734 -7.32994e-05 0.0
0.212995 -0.000100584 0.0
0.170547 -7.83105e-05 0.0
0.144342 -5.92818e-05 0.0
0 0 0.0
0.0399043 -7.06464e-06 0.0
0.0998004 -3.81853e-05 0.0
0.0693331 -2.05088e-05 0.0
0.170619 -9.47264e-05 0.0
0.144416 -7.12039e-05 0.0
0.124368 -7.1559e-05 0.0
0.183643 -0.000120812 0.0
0.204123 -0.000145081 0.0
0.222027 -0.000169716 0.0
0.249102 -0.000144442 0.0
0.244017 -0.000151316 0.0
0.249111 -0.000150595 0.0
0.238536 -0.000187725 0.0
0.234354 -0.00012464 0.0
0.244879 -0.000146827 0.0
0 0 0.0
0.0322824 -7.3328e-06 0.0
0.0940608 -4.8767e-05 0.0
0.0651996 -2.70137e-05 0.0
0.19671 -0.00010502 0.0
0.21788 -0.000128148 0.0
0.177462 -0.000104693 0.0
0.148711 -7.65576e-05 0.0
0.120348 -5.5173e-05 0.0
0 0 0.0
0.0344004 -6.67841e-06 0.0
0.0716635 -2.71152e-05 0.0
0.152416 -0.000104149 0.0
0.127602 -8.7919e-05 0.0
0.18757 -0.000152337 0.0
0.211938 -0.000191021 0.0
0.248594 -0.0001753 0.0
0.225668 -0.000214507 0.0
0.249768 -0.000185579 0.0
0.246458 -0.000189688 0.0
0.24204 -0.000230458 0.0
0.238489 -0.000156317 0.0
0 0 0.0
0.0338572 -7.40249e-06 0.0
0.0999742 -6.04927e-05 0.0
0.0695151 -2.86122e-05 0.0
0.206279 -0.000132325 0.0
0.222416 -0.000154052 0.0
0.190012 -0.000132282 0.0
0.168294 -0.000111951 0.0
0.143042 -9.08872e-05 0.0
0.124224 -6.96404e-05 0.0
0.0971114 -4.868e-05 0.0
0 0 0.0
0.0360356 -8.93597e-06 0.0
0.0673424 -3.1808e-05 0.0
0.130322 -0.00010403 0.0
0.168474 -0.000150022 0.0
0.199461 -0.000200982 0.0
0.218359 -0.000236348 0.0
0.241984 -0.000189322 0.0
0.249977 -0.000218699 0.0
0.247971 -0.000204879 0.0
0.229054 -0.000264533 0.0
0.244898 -0.000274202 0.0
0.248711 -0.000239693 0.0
0.234445 -0.000183077 0.0
0 0 0.0
0.036198 -5.24485e-06 0.0
0.122648 -9.85427e-05 0.0
0.0711828 -2.27935e-05 0.0
0.208377 -0.000151632 0.0
0.225139 -0.000178531 0.0
0.198095 -0.000149215 0.0
0.177782 -0.000130816 0.0
0.146585 -0.000107619 0.0
0.119182 -8.32308e-05 0.0
0.0970883 -5.7841e-05 0.0
0 0 0.0
0.0349564 -1.21109e-05 0.0
0.0673112 -4.08331e-05 0.0
0.152297 -0.000154038 0.0
0.178011 -0.000199408 0.0
0.210098 -0.00025783 0.0
0.244837 -0.000221323 0.0
0.249386 -0.000245322 0.0
0.232182 -0.00032035 0.0
0.244139 -0.000321121 0.0
0.249925 -0.000296658 0.0
0.249085 -0.00027971 0.0
0.235905 -0.00020621 0.0
0.212939 -0.000338257 0.0
0 0 0.0
0.0370979 -4.36684e-07 0.0
0.141119 -0.000149474 0.0
0.0999323 -5.44412e-05 0.0
0.0665246 -7.75542e-06 0.0
0.213663 -0.000168573 0.0
0.186683 -0.000144599 0.0
0.165171 -0.000130554 0.0
0.122317 -0.000103803 0.0
0.0929195 -7.34728e-05 0.0
0 0 0.0
0.0349239 -1.69529e-05 0.0
0.0642607 -5.4961e-05 0.0
0.165606 -0.000211653 0.0
0.186966 -0.000260923 0.0
0.158158 -0.000224769 0.0
0.247047 -0.000256733 0.0
0.248611 -0.000299639 0.0
0.230994 -0.000381952 0.0
0.240447 -0.000384659 0.0
0.248664 -0.000357766 0.0
0.240175 -0.000231527 0.0
0.22926 -0.000198513 0.0
0.199178 -0.000346861 0.0
0.218592 -0.000421515 0.0
0 0 0.0
0.0345458 5.35088e-06 0.0
0.126203 -0.000126798 0.0
0.0680794 -1.31651e-06 0.0
0.098798 -4.88591e-05 0.0
0.208148 -0.000159082 0.0
0.189862 -0.000143443 0.0
0.168254 -0.000137215 0.0
0.140735 -0.000126818 0.0
0.0954847 -9.86404e-05 0.0
0 0 0.0
0.033253 -2.27193e-05 0.0
0.0660882 -7.7928e-05 0.0
0.183253 -0.000335987 0.0
0.159335 -0.000273572 0.0
0.244826 -0.000270436 0.0
0.249527 -0.000349018 0.0
0.235862 -0.000463834 0.0
0.244728 -0.000442646 0.0
0.249236 -0.000401678 0.0
0.238569 -0.000230474 0.0
0.218465 -0.00015877 0.0
0.203102 -0.00044853 0.0
0.223298 -0.000513408 0.0
0 0 0.0
0.0476511 1.04052e-05 0.0
0.12801 -0.000164699 0.0
0.09038 -3.6436e-05 0.0
0.202715 -0.00013437 0.0
0.178138 -0.000127451 0.0
0.148085 -0.000138085 0.0
0.118859 -0.000131969 0.0
0.0780905 -0.000112963 0.0
0 0 0.0
0.0342042 -3.29225e-05 0.0
0.18789 -0.00045973 0.0
0.160527 -0.000346192 0.0
0.24632 -0.000298848 0.0
0.249793 -0.000411942 0.0
0.23997 -0.000552854 0.0
0.247332 -0.000533055 0.0
0.239756 -0.000227705 0.0
0.227283 -0.000154534 0.0
0.209832 -0.000103548 0.0
0.227602 -0.000620637 0.0
0.210264 -0.00058567 0.0
0 0 0.0
0.047657 5.81567e-06 0.0
0.12819 -0.000238817 0.0
0.0904781 -6.41429e-05 0.0
0.18738 -9.11041e-05 0.0
0.159904 -0.000110461 0.0
0.0471594 -6.39605e-05 0.0
0.127357 -0.000141758 0.0
0.0897202 -0.000137819 0.0
0 0 0.0
0.188012 -0.00060533 0.0
0.160709 -0.000474616 0.0
0.247199 -0.00032743 0.0
0.249682 -0.000464237 0.0
0.239916 -0.000676262 0.0
0.247218 -0.000633284 0.0
0.227209 -9.41073e-05 0.0
0.239653 -0.000198672 0.0
0.18739 -1.08483e-05 0.0
0.209793 -2.56088e-05 0.0
0.227596 -0.000749896 0.0
0.210319 -0.000760409 0.0
0 0 0.0
0.0476913 -1.69509e-05 0.0
0.12842 -0.000379971 0.0
0.0906598 -0.000152627 0.0
0.127395 -0.000104287 0.0
0.159946 -4.6315e-05 0.0
0.0470683 -6.60117e-05 0.0
0.0896883 -0.000127554 0.0
0 0 0.0
0.188152 -0.00081519 0.0
0.160929 -0.000676392 0.0
0.247061 -0.000329577 0.0
0.249525 -0.000517252 0.0
0.227568 -0.000911946 0.0
0.239779 -0.00090737 0.0
0.247061 -0.000751516 0.0
0.227123 -1.77902e-05 0.0
0.239509 -0.000143848 0.0
0.187399 8.6027e-05 0.0
0.209741 0.00010553 0.0
0.210368 -0.000992684 0.0
0 0 0.0
0.0477969 -5.85288e-05 0.0
0.128765 -0.000658504 0.0
0.0909202 -0.000303266 0.0
0.127451 -2.11086e-05 0.0
0.160011 8.33024e-05 0.0
0.0469867 -5.27689e-05 0.0
0.0896901 -7.3691e-05 0.0
0 0 0.0
0.161182 -0.000976551 0.0
0.188339 -0.00119162 0.0
0.246865 -0.000321385 0.0
0.249299 -0.000576507 0.0
0.239646 -0.00107691 0.0
0.227478 -0.001255 0.0
0.246831 -0.000892408 0.0
0.239306 -5.85875e-05 0.0
0.227006 9.22316e-05 0.0
0.187407 0.000281842 0.0
0.209659 0.000297211 0.0
0.210398 -0.00130542 0.0
0 0 0.0
0.0479906 -0.000119653 0.0
0.129081 -0.000957926 0.0
0.0913178 -0.000528477 0.0
0.127557 0.000154404 0.0
0.160091 0.00030142 0.0
0 0 0.0
0.0897687 4.64594e-05 0.0
0.0469524 -2.25665e-05 0.0
0.188474 -0.0016223 0.0
0.161454 -0.00139386 0.0
0.227364 -0.00153044 0.0
0.246597 -0.000298027 0.0
0.248993 -0.00064092 0.0
0.246592 -0.00101981 0.0
0.23947 -0.00127431 0.0
0.239025 6.12977e-05 0.0
0.226815 0.000273387 0.0
0.187396 0.000654755 0.0
0.209531 0.000562863 0.0
0.21039 -0.00169361 0.0
0 0 0.0
0.0483489 -0.000216132 0.0
0.0918306 -0.00079268 0.0
0.129542 -0.00141409 0.0
0.127754 0.000488296 0.0
0.160179 0.000630258 0.0
0 0 0.0
0.04701 3.46721e-05 0.0
0.0899323 0.000218986 0.0
0.18856 -0.00201143 0.0
0.161749 -0.00194079 0.0
0.227197 -0.00185577 0.0
0.239026 -0.00169562 0.0
0.246232 -0.000260382 0.0
0.248579 -0.000708226 0.0
0.246296 -0.0011668 0.0
0.238647 0.000218117 0.0
0.226543 0.000513694 0.0
0.187343 0.00095842 0.0
0.209336 0.000910464 0.0
0.210321 -0.00217852 0.0
0 0 0.0
0.0489011 -0.000321627 0.0
0.130267 -0.0020813 0.0
0.0927409 -0.00120197 0.0
0.127954 0.000827054 0.0
0.160267 0.00107852 0.0
0.0471996 0.000111386 0.0
0 0 0.0
0.0903103 0.000505597 0.0
0.162057 -0.00261115 0.0
0.188651 -0.00281153 0.0
0.226796 -0.00248733 0.0
0.238557 -0.00205959 0.0
0.245793 -0.0013878 0.0
0.245499 -0.000177649 0.0
0.248038 -0.000791015 0.0
0.238149 0.000414293 0.0
0.226023 0.000935424 0.0
0.187212 0.0016026 0.0
0.209049 0.00134556 0.0
0.210176 -0.00276512 0.0
0 0 0.0
0.0496811 -0.000455925 0.0
0.0938263 -0.00161445 0.0
0.162401 -0.0033873 0.0
0.130898 -0.00264679 0.0
0.128297 0.00132856 0.0
0.160324 0.0015199 0.0
0.0475623 0.000214446 0.0
0 0 0.0
0.0907879 0.000787198 0.0
0.209971 -0.00333621 0.0
0.18864 -0.00337431 0.0
0.238088 -0.0023973 0.0
0.226335 -0.00305463 0.0
0.244824 -0.0017489 0.0
0.247348 -0.000879147 0.0
0.244962 -0.000121441 0.0
0.237507 0.000645906 0.0
0.225571 0.00124732 0.0
0.187049 0.00206085 0.0
0.160441 0.00232373 0.0
0.208651 0.00186304 0.0
0 0 0.0
0.0951235 -0.00202284 0.0
0.0507386 -0.000602094 0.0
0.162709 -0.00409289 0.0
0.132042 -0.0034762 0.0
0.128776 0.00191947 0.0
0 0 0.0
0.048124 0.000324231 0.0
0.0916772 0.00119345 0.0
0.209686 -0.00396724 0.0
0.188586 -0.0044394 0.0
0.237513 -0.00275218 0.0
0.225749 -0.00369114 0.0
0.244127 -0.00197862 0.0
0.246477 -0.000979843 0.0
0.244345 -5.97166e-05 0.0
0.1605 0.00291303 0.0
0.208197 0.00236612 0.0
0.23669 0.000909692 0.0
0.225027 0.00159511 0.0
0.186781 0.00275493 0.0
0 0 0.0
0.0519357 -0.000726003 0.0
0.0968031 -0.00247698 0.0
0.163143 -0.00500134 0.0
0.133252 -0.00421982 0.0
0.0927808 0.00159859 0.0
0.129511 0.0026503 0.0
0 0 0.0
0.0489598 0.000459047 0.0
0.209224 -0.00479593 0.0
0.188449 -0.00537475 0.0
0.23664 -0.00325688 0.0
0.22499 -0.0043855 0.0
0.24335 -0.00222309 0.0
0.24543 -0.00109309 0.0
0.242885 7.79475e-05 0.0
0.160647 0.00372326 0.0
0.235699 0.00120149 0.0
0.207649 0.00291499 0.0
0.223899 0.00224036 0.0
0.186318 0.00371416 0.0
0 0 0.0
0.0990762 -0.00293818 0.0
0.0535343 -0.000860023 0.0
0.163824 -0.00613702 0.0
0.13476 -0.00495022 0.0
0.094025 0.00196892 0.0
0.130388 0.00329622 0.0
0 0 0.0
0.0499203 0.000580039 0.0
0.188291 -0.00636488 0.0
0.208645 -0.00568874 0.0
0.235573 -0.00380985 0.0
0.242148 -0.00257 0.0
0.224064 -0.00514275 0.0
0.244155 -0.00122085 0.0
0.241599 0.000167205 0.0
0.234492 0.00151003 0.0
0.24268 -0.00209099 0.0
0.160829 0.00452833 0.0
0.222812 0.00276135 0.0
0.20658 0.00382083 0.0
0.185965 0.00431496 0.0
0 0 0.0
0.101226 -0.0032784 0.0
0.0553234 -0.00099279 0.0
0.164365 -0.00687599 0.0
0.136543 -0.00563862 0.0
0.0956646 0.00232497 0.0
0.131303 0.00383771 0.0
0 0 0.0
0.0511111 0.000672078 0.0
0.188118 -0.00737552 0.0
0.207931 -0.00663418 0.0
0.234299 -0.00439921 0.0
0.222958 -0.00595218 0.0
0.240008 -0.00312887 0.0
0.242342 -0.000545846 0.0
0.237497 0.00101346 0.0
0.228157 0.00250448 0.0
0.241821 -0.00144128 0.0
0.161138 0.00531575 0.0
0.214327 0.00384579 0.0
0.200988 0.00472885 0.0
0.185351 0.00534363 0.0
0 0 0.0
0.103869 -0.0036006 0.0
0.0572743 -0.00108966 0.0
0.165243 -0.00775372 0.0
0.138624 -0.0062394 0.0
0.132848 0.0044953 0.0
0.0975929 0.00262867 0.0
0 0 0.0
0.0526446 0.0007623 0.0
0.187977 -0.00837588 0.0
0.207117 -0.00760929 0.0
0.238249 -0.00354127 0.0
0.221675 -0.00679845 0.0
0.232816 -0.00503809 0.0
0.239176 0.000302708 0.0
0.232099 0.00203729 0.0
0.220609 0.00366025 0.0
0.23995 -0.00161467 0.0
0.161566 0.00600965 0.0
0.204798 0.00504294 0.0
0.184824 0.00612221 0.0
0 0 0.0
0.059224 -0.00115797 0.0
0.106744 -0.00383532 0.0
0.14066 -0.00664912 0.0
0.187923 -0.00931649 0.0
0.166324 -0.00853556 0.0
0.134449 0.00495778 0.0
0.0997322 0.00285813 0.0
0.0541354 0.000847226 0.0
0 0 0.0
0.220483 -0.00752294 0.0
0.206232 -0.00858428 0.0
0.236709 -0.0038898 0.0
0.231113 -0.00570913 0.0
0.219004 0.00420431 0.0
0.237294 0.00038613 0.0
0.230293 0.00236449 0.0
0.23783 -0.00181066 0.0
0.184356 0.00681242 0.0
0.162347 0.00669084 0.0
0.203209 0.00593659 0.0
0 0 0.0
0.0614452 -0.00117541 0.0
0.110119 -0.00397538 0.0
0.143281 -0.00701164 0.0
0.18797 -0.00998207 0.0
0.168013 -0.00929986 0.0
0.136297 0.0052648 0.0
0.102296 0.00299724 0.0
0.0557858 0.000878083 0.0
0 0 0.0
0.138425 0.00538561 0.0
0.219203 -0.00823983 0.0
0.205023 -0.00980342 0.0
0.22837 -0.00668944 0.0
0.235027 -0.00425201 0.0
0.216548 0.00489472 0.0
0.228251 0.00267835 0.0
0.235158 0.000444292 0.0
0.235441 -0.00203379 0.0
0.183985 0.00738478 0.0
0.163256 0.00704462 0.0
0.201899 0.0065234 0.0
0 0 0.0
0.0636599 -0.00116864 0.0
0.113342 -0.00401074 0.0
0.146155 -0.00720953 0.0
0.188197 -0.0107127 0.0
0.169721 -0.00973659 0.0
0.0573533 0.00085751 0.0
0.104728 0.00298528 0.0
0 0 0.0
0.140303 0.00533758 0.0
0.217552 -0.00908478 0.0
0.204141 -0.0106408 0.0
0.226182 -0.00738414 0.0
0.232638 -0.00474387 0.0
0.214913 0.00523459 0.0
0.225991 0.00294987 0.0
0.232802 -0.00229114 0.0
0.2316 0.000478626 0.0
0.183796 0.00766917 0.0
0.164392 0.00715902 0.0
0.200593 0.00697883 0.0
0 0 0.0
0.0658982 -0.00115287 0.0
0.116559 -0.00396298 0.0
0.149687 -0.00723777 0.0
0.188803 -0.0113678 0.0
0.203344 -0.0113342 0.0
0.171726 -0.00996801 0.0
0.0589235 0.000800806 0.0
0.107158 0.00285625 0.0
0 0 0.0
0.142644 0.00507192 0.0
0.215226 -0.0101035 0.0
0.224304 -0.00793179 0.0
0.230034 -0.00524205 0.0
0.230658 -0.00251022 0.0
0.213222 0.00548881 0.0
0.223523 0.00313347 0.0
0.228854 0.000433505 0.0
0.165805 0.00700073 0.0
0.183731 0.00781929 0.0
0.199351 0.00722551 0.0
0 0 0.0
0.0680831 -0.00115323 0.0
0.119775 -0.00382621 0.0
0.152937 -0.00710176 0.0
0.189386 -0.0115934 0.0
0.202722 -0.0118343 0.0
0.173993 -0.0099888 0.0
0.0603976 0.000707268 0.0
0.109529 0.00261067 0.0
0 0 0.0
0.167012 0.0066762 0.0
0.11168 0.00227188 0.0
0.145323 0.00451663 0.0
0.213513 -0.0107282 0.0
0.22237 -0.00841633 0.0
0.225902 -0.00595616 0.0
0.228413 -0.00274897 0.0
0.226584 0.000344505 0.0
0.211132 0.00563352 0.0
0.219815 0.00319604 0.0
0.183941 0.00758746 0.0
0.19839 0.00721669 0.0
0.21216 -0.0110842 0.0
0 0 0.0
0.0701202 -0.00109361 0.0
0.156228 -0.00683093 0.0
0.122864 -0.00365222 0.0
0.202303 -0.0121102 0.0
0.190638 -0.0116611 0.0
0.176455 -0.00981076 0.0
0.0617992 0.00059576 0.0
0 0 0.0
0.18428 0.00717091 0.0
0.168699 0.00600197 0.0
0.147612 0.00381526 0.0
0.0627425 0.000505698 0.0
0.113591 0.00181829 0.0
0.219933 -0.00895976 0.0
0.22361 -0.00632171 0.0
0.225274 -0.00311329 0.0
0.222859 -0.00342612 0.0
0.224232 0.000185755 0.0
0.209069 0.00551564 0.0
0.217087 0.00300877 0.0
0.19756 0.0069747 0.0
0.210906 -0.0113198 0.0
0.0719134 -0.00105248 0.0
0 0 0.0
0.158954 -0.00654677 0.0
0.125793 -0.0034556 0.0
0.202105 -0.012156 0.0
0.191615 -0.0115468 0.0
0.179058 -0.00948284 0.0
0 0 0.0
0.184841 0.00634837 0.0
0.170719 0.00485423 0.0
0.149315 0.00312555 0.0
0.0635605 0.000351603 0.0
0.115116 0.00133611 0.0
0.216515 -0.00951825 0.0
0.221289 -0.00665793 0.0
0.220456 -0.00377598 0.0
0.219691 -0.000326288 0.0
0.207115 0.00509924 0.0
0.214372 0.00257495 0.0
0.196554 0.0061104 0.0
0.209569 -0.0114508 0.0
0 0 0.0
0.0737897 -0.000988373 0.0
0.162066 -0.00620156 0.0
0.128293 -0.00329606 0.0
0.181679 -0.00906465 0.0
0.202154 -0.0120194 0.0
0.193396 -0.0111357 0.0
0 0 0.0
0 0 0.0
0.185572 0.00520359 0.0
0.172407 0.00365724 0.0
0.151102 0.00220921 0.0
0.116253 0.00082614 0.0
0.0640994 0.000186664 0.0
0.214265 -0.00977875 0.0
0.218346 -0.00707245 0.0
0.212281 0.00205657 0.0
0.217308 -0.00430064 0.0
0.216625 -0.000906829 0.0
0.205335 0.00434114 0.0
0.196031 0.00505229 0.0
0.212567 -0.00992481 0.0
0.208429 -0.0114369 0.0
0.0756034 -0.000960265 0.0
0.130898 -0.00315313 0.0
0.165068 -0.00591285 0.0
0.18382 -0.00873532 0.0
0.202395 -0.011761 0.0
0.19461 -0.0108658 0.0
0 0 0.0
0 0 0.0
0.173524 0.0026412 0.0
0.186497 0.00345742 0.0
0.116881 0.000377536 0.0
0.152637 0.00113133 0.0
0.0643413 4.34943e-05 0.0
0.21433 -0.00764324 0.0
0.214333 -0.00492766 0.0
0.19567 0.00368906 0.0
0.210293 0.00136088 0.0
0.214325 -0.00148297 0.0
0.203215 0.0028367 0.0
0.211062 -0.0100454 0.0
0.207273 -0.0113282 0.0
0.202795 -0.0114956 0.0
0.077362 -0.000996678 0.0
0.133422 -0.00310898 0.0
0.16825 -0.00574741 0.0
0.186321 -0.00838892 0.0
0.196626 -0.0104266 0.0
0 0 0.0
0 0 0.0
0.174915 0.00106033 0.0
0.187246 0.00189796 0.0
0.117246 -0.000152001 0.0
0.153503 0.000219317 0.0
0.0643548 -8.86431e-05 0.0
0.212153 -0.00215792 0.0
0.211609 -0.00564373 0.0
0.211876 -0.00808036 0.0
0.195442 0.00213836 0.0
0.208038 0.000259187 0.0
0.201935 0.00141201 0.0
0.187811 0.00032151 0.0
0.208795 -0.0103136 0.0
0 0 0.0
0.206632 -0.0113433 0.0
0.198274 -0.0102426 0.0
0.203294 -0.0113321 0.0
0.0790462 -0.00104538 0.0
0.170555 -0.00577169 0.0
0.136121 -0.0032431 0.0
0.189202 -0.00828634 0.0
0 0 0.0
0 0 0.0
0 0 0.0
0 0 0.0
0 0 0.0
0.0641309 -0.000199833 0.0
0.153929 -0.000637867 0.0
0.175715 -0.000223812 0.0
0.11721 -0.000538485 0.0
0.20958 -0.00315849 0.0
0.209202 -0.00646486 0.0
0.209696 -0.00860368 0.0
0.200985 0.000130561 0.0
0.195246 0.000472793 0.0
0.205241 -0.00158018 0.0
0.195085 -0.000948334 0.0
0.188065 -0.000808965 0.0
0.207479 -0.0106849 0.0
0.206171 -0.0114915 0.0
0 0 0.0
-0.000115782 9.49589e-05 0.0
0 0 0.0
-0.000764154 0.00753975 0.0
0.203859 -0.0113999 0.0
0.199439 -0.0102844 0.0
0.0810211 -0.0011636 0.0
0.173099 -0.00602125 0.0
0.138626 -0.00354855 0.0
0.191474 -0.00852785 0.0
0 0 0.0
0 0 0.0
0 0 0.0
-0.000672869 0.00524738 0.0
-0.000357613 0.000810968 0.0
-0.000815531 0.000812961 0.0
0 0 0.0
0.0636562 -0.000307923 0.0
0.153936 -0.00127504 0.0
0.176084 -0.001395 0.0
0.116711 -0.000939875 0.0
0.207322 -0.00430571 0.0
0.207091 -0.00739313 0.0
0.207819 -0.00922511 0.0
0.200158 -0.00119416 0.0
0.203909 -0.00274758 0.0
0.194839 -0.00230384 0.0
0.188142 -0.00255792 0.0
0.206375 -0.0112372 0.0
0.206072 -0.011766 0.0
0.205243 -0.0118746 0.0
0 0 0.0
-0.000802455 0.000351466 0.0
0 0 0.0
0 0 0.0
-0.0025126 0.0141821 0.0
-0.00286359 0.0109177 0.0
0.203686 -0.0115571 0.0
0.200871 -0.0106625 0.0
0.141 -0.00399868 0.0
0.0830586 -0.0013712 0.0
0.175622 -0.00659208 0.0
0.193539 -0.00913044 0.0
0 0 0.0
-0.00172826 0.00408268 0.0
-0.0023898 0.00724191 0.0
-0.00179214 0.0025143 0.0
-0.00256708 0.00175829 0.0
0 0 0.0
0.0630317 -0.000397632 0.0
0.153571 -0.00193471 0.0
0.176044 -0.00242476 0.0
0.115957 -0.00125219 0.0
0.205335 -0.0055293 0.0
0.205285 -0.00842152 0.0
0.206209 -0.0100011 0.0
0.198941 -0.00338827 0.0
0.202675 -0.00393016 0.0
0.194449 -0.00380502 0.0
0.175688 -0.00333392 0.0
0.18794 -0.00379627 0.0
0.2056 -0.0118437 0.0
0.205607 -0.012373 0.0
0.204741 -0.0123126 0.0
0 0 0.0
-0.00254801 0.000689528 0.0
0 0 0.0
0 0 0.0
0 0 0.0
0 0 0.0
-0.00572813 0.0111501 0.0
-0.000585031 0.011148 0.0
-0.00233113 0.0167586 0.0
-0.00563761 0.0205984 0.0
-0.00538693 0.0159075 0.0
0 0 0.0
5.87848e-05 0.0132703 0.0
0.202463 -0.0117412 0.0
0.195153 -0.00993719 0.0
0 0 0.0
0.0857301 -0.00172373 0.0
0.143948 -0.00471833 0.0
0.1786 -0.0078236 0.0
0 0 0.0
0 0 0.0
-0.00447717 0.00691106 0.0
-0.00459342 0.00437156 0.0
-0.00541346 0.00261322 0.0
0 0 0.0
0.0622001 -0.000476882 0.0
0.152716 -0.00257097 0.0
0.114915 -0.00150937 0.0
0.175082 -0.00393829 0.0
0.203627 -0.00681548 0.0
0.204079 -0.00925753 0.0
0.204809 -0.0109618 0.0
0.19823 -0.00465935 0.0
0.201309 -0.00541072 0.0
0.193896 -0.00515675 0.0
0.187527 -0.00460171 0.0
0.205305 -0.0130194 0.0
0.204869 -0.0126251 0.0