# vtk DataFile Version 3.0
Mesh NS-CD Problem
ASCII
DATASET UNSTRUCTURED_GRID
POINTS 10839 float
-2 0.3 0.0
-2 0.4 0.0
-2 0.35 0.0
-2 0.45 0.0
-2 0.5 0.0
-2 0.55 0.0
-2 0 0.0
-2 0.05 0.0
-2 0.85 0.0
-2 0.9 0.0
-2 0.1 0.0
-2 0.15 0.0
-2 0.25 0.0
-2 0.2 0.0
-1.96653 0.266667 0.0
-1.96524 0.415385 0.0
-1.96485 0.315 0.0
-1.96348 0.363636 0.0
-1.96414 0.464286 0.0
-2 0.6 0.0
-1.96538 0.584615 0.0
-1.96538 0.538462 0.0
-1.94979 0 0.0
-1.96653 0.0666666 0.0
-1.93306 0.0333333 0.0
-2 0.8 0.0
-2 0.75 0.0
-2 0.7 0.0
-2 0.65 0.0
-1.96249 0.7375 0.0
-1.96666 0.833333 0.0
-2 1 0.0
-2 0.95 0.0
-1.96249 0.8875 0.0
-1.96666 0.933333 0.0
-1.96234 0.1125 0.0
-1.96653 0.166667 0.0
-1.93724 0.225 0.0
-1.92971 0.28 0.0
-1.93048 0.380769 0.0
-1.93048 0.423077 0.0
-1.89958 0.3375 0.0
-1.9292 0.484203 0.0
-1.92117 0.530907 0.0
-1.96363 0.636364 0.0
-1.93076 0.576923 0.0
-1.89958 0 0.0
-1.88703 0.0375 0.0
-1.90963 0.08 0.0
-1.86611 0.0666666 0.0
-1.93749 0.775 0.0
-1.93635 0.672727 0.0
-1.92999 0.72 0.0
-1.93332 0.866667 0.0
-1.92856 0.821429 0.0
-1.94999 1 0.0
-1.92499 0.9625 0.0
-1.92499 0.925 0.0
-1.89998 0.9 0.0
-1.89958 0.125 0.0
-1.92827 0.178571 0.0
-1.89958 0.233333 0.0
-1.89045 0.290909 0.0
-1.86096 0.311538 0.0
-1.89241 0.392857 0.0
-1.89334 0.448489 0.0
-1.85655 0.357143 0.0
-1.89614 0.653846 0.0
-1.89427 0.504121 0.0
-1.8952 0.559753 0.0
-1.89614 0.615385 0.0
-1.84937 0 0.0
-1.83264 0.0333333 0.0
-1.85655 0.107143 0.0
-1.81172 0.075 0.0
-1.89998 0.766667 0.0
-1.89089 0.709091 0.0
-1.87498 0.85 0.0
-1.85998 0.79 0.0
-1.88748 0.8125 0.0
-1.89998 1 0.0
-1.88748 0.9625 0.0
-1.86664 0.933333 0.0
-1.85712 0.892857 0.0
-1.87448 0.15 0.0
-1.86611 0.194444 0.0
-1.83264 0.133333 0.0
-1.83264 0.2625 0.0
-1.82068 0.321429 0.0
-1.85664 0.404762 0.0
-1.85674 0.452381 0.0
-1.85683 0.5 0.0
-1.81184 0.375 0.0
-1.85712 0.642857 0.0
-1.85693 0.547619 0.0
-1.85702 0.595238 0.0
-1.79917 0 0.0
-1.78482 0.0357143 0.0
-1.79917 0.116667 0.0
-1.76569 0.0666666 0.0
-1.85452 0.745455 0.0
-1.82689 0.692308 0.0
-1.81815 0.781818 0.0
-1.82497 0.825 0.0
-1.84997 1 0.0
-1.8333 0.958333 0.0
-1.81247 0.8875 0.0
-1.81247 0.925 0.0
-1.81742 0.218182 0.0
-1.82427 0.175 0.0
-1.77634 0.145455 0.0
-1.79144 0.242308 0.0
-1.78482 0.285714 0.0
-1.77469 0.332653 0.0
-1.81215 0.529762 0.0
-1.81194 0.422619 0.0
-1.81203 0.470238 0.0
-1.76714 0.392857 0.0
-1.81234 0.625 0.0
-1.79732 0.571429 0.0
-1.74896 0 0.0
-1.73222 0.0333333 0.0
-1.75398 0.105 0.0
-1.71883 0.07 0.0
-1.79227 0.730769 0.0
-1.78007 0.679121 0.0
-1.75765 0.769231 0.0
-1.78178 0.818182 0.0
-1.78996 0.86 0.0
-1.79996 1 0.0
-1.78568 0.964286 0.0
-1.76663 0.922222 0.0
-1.76569 0.1875 0.0
-1.73222 0.15 0.0
-1.74896 0.25 0.0
-1.73714 0.304762 0.0
-1.76743 0.537202 0.0
-1.72869 0.343878 0.0
-1.76732 0.485119 0.0
-1.76723 0.440476 0.0
-1.72243 0.410714 0.0
-1.76757 0.607143 0.0
-1.69875 0 0.0
-1.68369 0.035 0.0
-1.69875 0.1125 0.0
-1.66528 0.075 0.0
-1.74341 0.708974 0.0
-1.73324 0.665934 0.0
-1.70441 0.74478 0.0
-1.71423 0.785714 0.0
-1.72303 0.826923 0.0
-1.74541 0.854545 0.0
-1.74541 0.890909 0.0
-1.74996 1 0.0
-1.73745 0.9625 0.0
-1.71359 0.927273 0.0
-1.68716 0.153846 0.0
-1.7131 0.214286 0.0
-1.70725 0.275 0.0
-1.69712 0.321939 0.0
-1.72279 0.589286 0.0
-1.72261 0.5 0.0
-1.7227 0.544643 0.0
-1.6827 0.355102 0.0
-1.67773 0.428571 0.0
-1.70763 0.464286 0.0
-1.70369 0.62449 0.0
-1.64854 0 0.0
-1.63181 0.0375 0.0
-1.64137 0.142857 0.0
-1.61764 0.0769231 0.0
-1.69458 0.703846 0.0
-1.67471 0.657437 0.0
-1.66143 0.727637 0.0
-1.67125 0.768571 0.0
-1.67851 0.821429 0.0
-1.68841 0.861538 0.0
-1.70904 0.890909 0.0
-1.69995 1 0.0
-1.68176 0.963636 0.0
-1.67267 0.927273 0.0
-1.65427 0.187143 0.0
-1.66718 0.231429 0.0
-1.66554 0.3 0.0
-1.67802 0.571429 0.0
-1.67792 0.523809 0.0
-1.6367 0.366327 0.0
-1.63682 0.423469 0.0
-1.62568 0.502976 0.0
-1.6629 0.470238 0.0
-1.65254 0.618367 0.0
-1.6059 0.307143 0.0
-1.59833 0 0.0
-1.58288 0.0384615 0.0
-1.60563 0.169643 0.0
-1.58179 0.112271 0.0
-1.56964 0.0714286 0.0
-1.64574 0.690385 0.0
-1.62827 0.751429 0.0
-1.63371 0.791071 0.0
-1.64279 0.857143 0.0
-1.65378 0.896154 0.0
-1.64994 1 0.0
-1.6363 0.963636 0.0
-1.61916 0.930769 0.0
-1.61345 0.209107 0.0
-1.62126 0.248571 0.0
-1.56989 0.196429 0.0
-1.63324 0.553571 0.0
-1.58846 0.535714 0.0
-1.59408 0.361905 0.0
-1.59161 0.402211 0.0
-1.58832 0.464286 0.0
-1.61504 0.598581 0.0
-1.59683 0.64359 0.0
-1.57899 0.274107 0.0
-1.56176 0.322381 0.0
-1.54812 0 0.0
-1.53378 0.0357143 0.0
-1.54593 0.147619 0.0
-1.53385 0.0732143 0.0
-1.53393 0.110714 0.0
-1.58522 0.704286 0.0
-1.58709 0.745 0.0
-1.58896 0.785714 0.0
-1.60695 0.830357 0.0
-1.60707 0.892857 0.0
-1.59993 1 0.0
-1.58454 0.965385 0.0
-1.57135 0.928571 0.0
-1.55209 0.241071 0.0
-1.5291 0.198214 0.0
-1.56936 0.570918 0.0
-1.54369 0.517857 0.0
-1.5464 0.380952 0.0
-1.54564 0.427721 0.0
-1.54488 0.47449 0.0
-1.55026 0.606122 0.0
-1.54222 0.677143 0.0
-1.52943 0.282857 0.0
-1.52143 0.33619 0.0
-1.49792 0 0.0
-1.49802 0.05 0.0
-1.49822 0.15 0.0
-1.49312 0.1 0.0
-1.5423 0.717143 0.0
-1.54419 0.767857 0.0
-1.54727 0.819048 0.0
-1.57122 0.861905 0.0
-1.53553 0.914286 0.0
-1.54992 1 0.0
-1.53563 0.964286 0.0
-1.49842 0.25 0.0
-1.48831 0.2 0.0
-1.5214 0.558929 0.0
-1.49891 0.5 0.0
-1.49871 0.4 0.0
-1.47631 0.45 0.0
-1.49911 0.6 0.0
-1.49921 0.65 0.0
-1.49931 0.7 0.0
-1.48111 0.35 0.0
-1.48351 0.3 0.0
-1.44771 0 0.0
-1.44782 0.05 0.0
-1.44804 0.15 0.0
-1.44793 0.1 0.0
-1.49941 0.75 0.0
-1.49951 0.8 0.0
-1.49981 0.95 0.0
-1.49961 0.85 0.0
-1.49971 0.9 0.0
-1.49991 1 0.0
-1.44826 0.25 0.0
-1.43815 0.2 0.0
-1.47151 0.55 0.0
-1.44881 0.5 0.0
-1.44859 0.4 0.0
-1.42619 0.45 0.0
-1.44913 0.65 0.0
-1.44902 0.6 0.0
-1.44935 0.75 0.0
-1.44924 0.7 0.0
-1.43972 0.35 0.0
-1.43336 0.3 0.0
-1.3975 0 0.0
-1.39762 0.05 0.0
-1.39786 0.15 0.0
-1.39274 0.1 0.0
-1.44957 0.85 0.0
-1.44946 0.8 0.0
-1.4523 0.95 0.0
-1.44968 0.9 0.0
-1.4499 1 0.0
-1.3981 0.25 0.0
-1.38798 0.2 0.0
-1.42141 0.55 0.0
-1.3987 0.5 0.0
-1.39834 0.35 0.0
-1.37845 0.4 0.0
-1.37607 0.45 0.0
-1.40784 0.65 0.0
-1.39894 0.6 0.0
-1.41185 0.75 0.0
-1.39918 0.7 0.0
-1.38322 0.3 0.0
-1.34729 0 0.0
-1.34492 0.05 0.0
-1.34018 0.15 0.0
-1.34255 0.1 0.0
-1.40707 0.85 0.0
-1.39941 0.8 0.0
-1.39977 0.95 0.0
-1.39965 0.9 0.0
-1.39989 1 0.0
-1.33781 0.2 0.0
-1.33544 0.25 0.0
-1.37131 0.55 0.0
-1.34859 0.5 0.0
-1.33833 0.4 0.0
-1.3307 0.35 0.0
-1.32595 0.45 0.0
-1.34885 0.6 0.0
-1.36655 0.65 0.0
-1.36179 0.75 0.0
-1.34911 0.7 0.0
-1.33307 0.3 0.0
-1.29708 0 0.0
-1.29722 0.05 0.0
-1.2975 0.15 0.0
-1.29236 0.1 0.0
-1.35703 0.85 0.0
-1.34937 0.8 0.0
-1.34988 1 0.0
-1.34962 0.9 0.0
-1.35226 0.95 0.0
-1.28528 0.25 0.0
-1.28764 0.2 0.0
-1.28931 0.35 0.0
-1.32121 0.55 0.0
-1.29848 0.5 0.0
-1.28709 0.45 0.0
-1.2982 0.4 0.0
-1.29876 0.6 0.0
-1.31647 0.65 0.0
-1.29918 0.75 0.0
-1.29904 0.7 0.0
-1.28292 0.3 0.0
-1.24687 0 0.0
-1.24702 0.05 0.0
-1.24717 0.1 0.0
-1.24732 0.15 0.0
-1.29946 0.85 0.0
-1.29932 0.8 0.0
-1.29987 1 0.0
-1.29974 0.95 0.0
-1.30462 0.9 0.0
-1.24762 0.25 0.0
-1.23747 0.2 0.0
-1.24792 0.35 0.0
-1.22807 0.4 0.0
-1.27111 0.55 0.0
-1.24837 0.5 0.0
-1.24822 0.45 0.0
-1.24867 0.6 0.0
-1.26639 0.65 0.0
-1.26167 0.75 0.0
-1.24897 0.7 0.0
-1.23277 0.3 0.0
-1.19667 0 0.0
-1.19683 0.05 0.0
-1.18964 0.15 0.0
-1.19198 0.1 0.0
-1.25695 0.85 0.0
-1.24927 0.8 0.0
-1.25223 0.95 0.0
-1.24987 1 0.0
-1.24957 0.9 0.0
-1.1873 0.2 0.0
-1.18496 0.25 0.0
-1.18028 0.35 0.0
-1.17794 0.4 0.0
-1.1981 0.45 0.0
-1.19842 0.55 0.0
-1.19826 0.5 0.0
-1.19858 0.6 0.0
-1.19874 0.65 0.0
-1.19906 0.75 0.0
-1.1989 0.7 0.0
-1.18262 0.3 0.0
-1.14646 0 0.0
-1.14663 0.05 0.0
-1.1418 0.1 0.0
-1.13713 0.2 0.0
-1.14697 0.15 0.0
-1.20691 0.85 0.0
-1.20926 0.8 0.0
-1.20221 0.95 0.0
-1.19986 1 0.0
-1.20456 0.9 0.0
-1.13997 0.3 0.0
-1.14731 0.25 0.0
-1.13781 0.4 0.0
-1.13014 0.35 0.0
-1.12548 0.45 0.0
-1.14815 0.5 0.0
-1.15962 0.55 0.0
-1.14849 0.6 0.0
-1.15745 0.65 0.0
-1.16155 0.75 0.0
-1.14917 0.8 0.0
-1.14883 0.7 0.0
-1.09625 0 0.0
-1.09661 0.1 0.0
-1.09393 0.05 0.0
-1.09697 0.2 0.0
-1.08929 0.15 0.0
-1.15687 0.85 0.0
-1.14985 1 0.0
-1.15219 0.95 0.0
-1.14951 0.9 0.0
-1.09733 0.3 0.0
-1.08465 0.25 0.0
-1.09769 0.4 0.0
-1.08 0.35 0.0
-1.08661 0.45 0.0
-1.09804 0.5 0.0
-1.12082 0.55 0.0
-1.10916 0.8 0.0
-1.10629 0.7 0.0
-1.0984 0.6 0.0
-1.11616 0.65 0.0
-1.11149 0.75 0.0
-1.04604 0 0.0
-1.04623 0.05 0.0
-1.04642 0.1 0.0
-1.0468 0.2 0.0
-1.03911 0.15 0.0
-1.09948 0.9 0.0
-1.0993 0.85 0.0
-1.09984 1 0.0
-1.09966 0.95 0.0
-1.04718 0.3 0.0
-1.03449 0.25 0.0
-1.04756 0.4 0.0
-1.02986 0.35 0.0
-1.04775 0.45 0.0
-1.04794 0.5 0.0
-1.04813 0.55 0.0
-1.05911 0.8 0.0
-1.04831 0.6 0.0
-1.06376 0.7 0.0
-1.0485 0.65 0.0
-1.04888 0.75 0.0
-0.995833 0 0.0
-0.991231 0.1 0.0
-0.996033 0.05 0.0
-0.986629 0.2 0.0
-0.98893 0.15 0.0
-1.05447 0.9 0.0
-1.04926 0.85 0.0
-1.04983 1 0.0
-1.04964 0.95 0.0
-0.984328 0.25 0.0
-0.99703 0.3 0.0
-0.997429 0.4 0.0
-0.997628 0.45 0.0
-0.979726 0.35 0.0
-0.997827 0.5 0.0
-0.998027 0.55 0.0
-0.998226 0.6 0.0
-0.961416 0.475 0.0
-1.00907 0.8 0.0
-0.998426 0.65 0.0
-0.998625 0.7 0.0
-1.01138 0.75 0.0
-0.945625 0 0.0
-0.946044 0.1 0.0
-0.943334 0.05 0.0
-0.946463 0.2 0.0
-0.938752 0.15 0.0
-1.00444 0.9 0.0
-1.00675 0.85 0.0
-0.999821 1 0.0
-1.00213 0.95 0.0
-0.93417 0.25 0.0
-0.946881 0.3 0.0
-0.9473 0.4 0.0
-0.929588 0.35 0.0
-0.925005 0.45 0.0
-0.960371 0.525 0.0
-0.959325 0.575 0.0
-0.958279 0.625 0.0
-0.922714 0.5 0.0
-0.959017 0.8 0.0
-0.957233 0.675 0.0
-0.952999 0.7125 0.0
-0.948766 0.75 0.0
-0.895417 0 0.0
-0.895855 0.1 0.0
-0.893136 0.05 0.0
-0.896294 0.2 0.0
-0.888573 0.15 0.0
-0.949184 0.85 0.0
-0.954415 0.9 0.0
-0.949812 1 0.0
-0.949603 0.95 0.0
-0.884011 0.25 0.0
-0.896733 0.3 0.0
-0.874887 0.45 0.0
-0.879449 0.35 0.0
-0.897171 0.4 0.0
-0.920423 0.55 0.0
-0.918132 0.6 0.0
-0.915841 0.65 0.0
-0.872606 0.5 0.0
-0.908968 0.8 0.0
-0.91355 0.7 0.0
-0.898707 0.75 0.0
-0.845208 0 0.0
-0.845438 0.05 0.0
-0.845667 0.1 0.0
-0.845896 0.15 0.0
-0.833853 0.25 0.0
-0.846126 0.2 0.0
-0.899146 0.85 0.0
-0.904386 0.9 0.0
-0.899584 0.95 0.0
-0.899804 1 0.0
-0.838062 0.35 0.0
[...]
POINT_DATA 10839
VECTORS Velocity float
0.21 0 0.0
0.24 0 0.0
0.2275 0 0.0
0.2475 0 0.0
0.25 0 0.0
0.2475 0 0.0
0 0 0.0
0.0475 0 0.0
0.1275 0 0.0
0.09 0 0.0
0.09 0 0.0
0.1275 0 0.0
0.1875 0 0.0
0.16 0 0.0
0.195557 -2.10064e-05 0.0
0.242841 -2.79318e-05 0.0
0.215776 -2.48605e-05 0.0
0.231406 -2.77981e-05 0.0
0.248725 -2.93224e-05 0.0
0.24 0 0.0
0.24284 -2.67302e-05 0.0
0.24852 -2.78142e-05 0.0
0 0 0.0
0.0622237 -3.70939e-06 0.0
0.0322264 -2.44248e-06 0.0
0.16 0 0.0
0.1875 0 0.0
0.21 0 0.0
0.2275 0 0.0
0.193592 -2.18526e-05 0.0
0.138888 -1.24205e-05 0.0
0 0 0.0
0.0475 0 0.0
0.0998419 -8.82371e-06 0.0
0.0622208 -3.71369e-06 0.0
0.0998459 -9.58758e-06 0.0
0.13889 -1.32932e-05 0.0
0.174379 -3.31684e-05 0.0
0.201605 -4.524e-05 0.0
0.235786 -5.42827e-05 0.0
0.244084 -5.61926e-05 0.0
0.2236 -7.33881e-05 0.0
0.24975 -5.76456e-05 0.0
0.249043 -6.33174e-05 0.0
0.231404 -2.65698e-05 0.0
0.244081 -5.31578e-05 0.0
0 0 0.0
0.0361063 -4.70823e-06 0.0
0.0736111 -1.31238e-05 0.0
0.0622458 -1.43951e-05 0.0
0.174371 -3.01557e-05 0.0
0.220162 -4.15911e-05 0.0
0.201596 -4.15553e-05 0.0
0.11555 -1.85613e-05 0.0
0.146678 -2.82119e-05 0.0
0 0 0.0
0.0360882 -3.14851e-06 0.0
0.0693676 -9.96952e-06 0.0
0.0899866 -1.92699e-05 0.0
0.109389 -2.75176e-05 0.0
0.14669 -2.98236e-05 0.0
0.1789 -5.55956e-05 0.0
0.206291 -7.239e-05 0.0
0.214497 -9.74217e-05 0.0
0.238525 -8.4756e-05 0.0
0.247348 -8.67654e-05 0.0
0.229603 -0.000109007 0.0
0.226325 -7.06311e-05 0.0
0.249981 -8.54885e-05 0.0
0.246426 -8.17393e-05 0.0
0.236681 -7.59542e-05 0.0
0 0 0.0
0.0322471 -5.37118e-06 0.0
0.0956924 -3.12211e-05 0.0
0.0694224 -2.36083e-05 0.0
0.178879 -4.97053e-05 0.0
0.206271 -6.59153e-05 0.0
0.127481 -3.87299e-05 0.0
0.165879 -6.2111e-05 0.0
0.15233 -4.5272e-05 0.0
0 0 0.0
0.0360816 -4.42721e-06 0.0
0.0622004 -1.34819e-05 0.0
0.0956367 -2.95027e-05 0.0
0.127521 -4.25746e-05 0.0
0.156658 -6.19654e-05 0.0
0.115595 -4.88378e-05 0.0
0.193622 -0.000102348 0.0
0.218135 -0.000128918 0.0
0.240936 -0.000114503 0.0
0.247734 -0.000116735 0.0
0.249997 -0.000115753 0.0
0.234391 -0.000147283 0.0
0.229579 -9.7442e-05 0.0
0.247726 -0.000112106 0.0
0.24092 -0.000106331 0.0
0 0 0.0
0.0344813 -7.46238e-06 0.0
0.103113 -4.79096e-05 0.0
0.0622925 -2.37614e-05 0.0
0.189733 -7.69834e-05 0.0
0.212995 -0.00010603 0.0
0.170545 -8.24566e-05 0.0
0.14434 -6.20918e-05 0.0
0 0 0.0
0.0399034 -7.37424e-06 0.0
0.0997985 -3.97211e-05 0.0
0.0693315 -2.13337e-05 0.0
0.170619 -9.45165e-05 0.0
0.144416 -7.13057e-05 0.0
0.124367 -7.19874e-05 0.0
0.183643 -0.000120065 0.0
0.204124 -0.000143861 0.0
0.222029 -0.000168398 0.0
0.249104 -0.00014877 0.0
0.244019 -0.000152551 0.0
0.249113 -0.000153205 0.0
0.238539 -0.000187491 0.0
0.234355 -0.000130837 0.0
0.24488 -0.000152837 0.0
0 0 0.0
0.0322832 -7.68661e-06 0.0
0.0940613 -4.97816e-05 0.0
0.0652011 -2.87679e-05 0.0
0.196708 -0.000111518 0.0
0.21788 -0.000136283 0.0
0.177458 -0.000111597 0.0
0.148708 -8.04543e-05 0.0
0.120346 -5.75105e-05 0.0
0 0 0.0
0.0343989 -6.92392e-06 0.0
0.0716612 -2.77686e-05 0.0
0.152415 -0.000103927 0.0
0.127601 -8.8901e-05 0.0
0.187569 -0.000150466 0.0
0.211939 -0.000187984 0.0
0.248598 -0.00018149 0.0
0.22567 -0.000211443 0.0
0.249772 -0.000189288 0.0
0.246462 -0.000191326 0.0
0.242045 -0.000229679 0.0
0.23849 -0.000164725 0.0
0 0 0.0
0.0338599 -8.6419e-06 0.0
0.0999741 -6.37717e-05 0.0
0.0695189 -3.37188e-05 0.0
0.206277 -0.000142457 0.0
0.222415 -0.000165845 0.0
0.190006 -0.000144036 0.0
0.168287 -0.00011987 0.0
0.143036 -9.53001e-05 0.0
0.12422 -7.21948e-05 0.0
0.0971078 -4.96979e-05 0.0
0 0 0.0
0.0360339 -8.91969e-06 0.0
0.0673397 -3.10672e-05 0.0
0.130319 -0.000106054 0.0
0.168471 -0.000148253 0.0
0.19946 -0.00019657 0.0
0.218361 -0.000230759 0.0
0.241987 -0.000200202 0.0
0.249983 -0.000224126 0.0
0.247977 -0.000213402 0.0
0.229058 -0.000258672 0.0
0.244907 -0.00027296 0.0
0.248719 -0.00024243 0.0
0.234447 -0.000197182 0.0
0 0 0.0
0.0362061 -8.33002e-06 0.0
0.122641 -0.000103337 0.0
0.0711899 -3.20519e-05 0.0
0.208373 -0.000166634 0.0
0.225139 -0.000196714 0.0
0.198087 -0.000167001 0.0
0.177771 -0.000143367 0.0
0.146574 -0.000113132 0.0
0.119174 -8.41618e-05 0.0
0.0970834 -5.76581e-05 0.0
0 0 0.0
0.0349558 -1.11399e-05 0.0
0.067309 -3.79317e-05 0.0
0.15229 -0.000153222 0.0
0.178006 -0.000194329 0.0
0.210098 -0.000249293 0.0
0.244844 -0.000234803 0.0
0.249396 -0.000254135 0.0
0.23219 -0.000310475 0.0
0.244153 -0.000316863 0.0
0.249943 -0.000304738 0.0
0.249098 -0.000282768 0.0
0.235911 -0.000226301 0.0
0.212939 -0.000320534 0.0
0 0 0.0
0.0371146 -5.47251e-06 0.0
0.141104 -0.00015059 0.0
0.0999267 -6.64408e-05 0.0
0.0665389 -1.98949e-05 0.0
0.213658 -0.000191047 0.0
0.186669 -0.000164941 0.0
0.165154 -0.000143146 0.0
0.122303 -0.000103532 0.0
0.0929125 -6.94515e-05 0.0
0 0 0.0
0.0349268 -1.46309e-05 0.0
0.0642618 -4.81942e-05 0.0
0.165593 -0.000205073 0.0
0.186958 -0.000249357 0.0
0.158134 -0.000215504 0.0
0.247061 -0.000272535 0.0
0.248635 -0.000316003 0.0
0.231005 -0.000364361 0.0
0.240465 -0.000372458 0.0
0.248688 -0.000358135 0.0
0.240186 -0.000255717 0.0
0.229265 -0.000230475 0.0
0.19917 -0.00032442 0.0
0.218596 -0.000393233 0.0
0 0 0.0
0.0345734 -2.59758e-07 0.0
0.126175 -0.000130069 0.0
0.0680974 -1.45312e-05 0.0
0.0987871 -6.05287e-05 0.0
0.208138 -0.000194272 0.0
0.189842 -0.000173437 0.0
0.168226 -0.00015713 0.0
0.14071 -0.000132462 0.0
0.0954735 -9.10388e-05 0.0
0 0 0.0
0.0332631 -1.89095e-05 0.0
0.0660928 -6.76509e-05 0.0
0.183232 -0.000311175 0.0
0.159297 -0.000254173 0.0
0.244849 -0.000297653 0.0
0.249564 -0.000364275 0.0
0.235884 -0.000438615 0.0
0.244761 -0.000429331 0.0
0.249273 -0.000402586 0.0
0.238589 -0.000269857 0.0
0.218462 -0.000209309 0.0
0.203093 -0.000409111 0.0
0.223311 -0.000472565 0.0
0 0 0.0
0.0476866 2.06733e-06 0.0
0.127962 -0.000155761 0.0
0.0903718 -4.37984e-05 0.0
0.202696 -0.000183057 0.0
0.178101 -0.000164475 0.0
0.14804 -0.000154991 0.0
0.11883 -0.000129639 0.0
0.0780871 -0.000101909 0.0
0 0 0.0
0.0342244 -2.76545e-05 0.0
0.18786 -0.000410885 0.0
0.160473 -0.000308702 0.0
0.24636 -0.000331795 0.0
0.24985 -0.000423071 0.0
0.240011 -0.000519572 0.0
0.247395 -0.000517232 0.0
0.239792 -0.000281429 0.0
0.227297 -0.000220918 0.0
0.209818 -0.000174485 0.0
0.227629 -0.000564923 0.0
0.210262 -0.000523456 0.0
0 0 0.0
0.0476964 3.04485e-06 0.0
0.128116 -0.000202213 0.0
0.0904563 -5.55031e-05 0.0
0.187338 -0.000153901 0.0
0.159839 -0.000153227 0.0
0.0471841 -5.67991e-05 0.0
0.127293 -0.000157342 0.0
0.0896973 -0.00013297 0.0
0 0 0.0
0.187971 -0.000523565 0.0
0.160631 -0.000401613 0.0
0.247263 -0.000366681 0.0
0.249767 -0.000476305 0.0
0.23998 -0.000625854 0.0
0.247314 -0.000607462 0.0
0.227235 -0.00018841 0.0
0.23971 -0.000272512 0.0
0.187332 -0.00010864 0.0
0.20978 -0.000129373 0.0
0.227636 -0.000671464 0.0
0.210321 -0.000663522 0.0
0 0 0.0
0.0477188 -7.71514e-06 0.0
0.128312 -0.000294568 0.0
0.0906008 -0.000105922 0.0
0.127301 -0.00014871 0.0
0.159855 -0.000122277 0.0
0.0470952 -6.43347e-05 0.0
0.0896472 -0.000140529 0.0
0 0 0.0
0.188102 -0.000684686 0.0
0.160826 -0.000547874 0.0
0.247157 -0.000381812 0.0
0.249649 -0.000531062 0.0
0.227627 -0.000804894 0.0
0.239891 -0.000822317 0.0
0.247201 -0.000713499 0.0
0.227165 -0.000141043 0.0
0.239597 -0.00024369 0.0
0.187332 -4.77128e-05 0.0
0.209733 -4.37766e-05 0.0
0.210381 -0.000849399 0.0
0 0 0.0
0.0477844 -3.19966e-05 0.0
0.128605 -0.000487581 0.0
0.0907991 -0.000204048 0.0
0.127326 -0.000106453 0.0
0.159891 -4.54958e-05 0.0
0.0469993 -6.26239e-05 0.0
0.0896143 -0.000120037 0.0
0 0 0.0
0.161058 -0.000769805 0.0
0.188288 -0.000975833 0.0
0.247006 -0.000389135 0.0
0.249478 -0.000591634 0.0
0.239799 -0.00096691 0.0
0.227585 -0.00108827 0.0
0.24703 -0.00083904 0.0
0.239438 -0.00019045 0.0
0.227072 -6.7114e-05 0.0
0.187332 8.41214e-05 0.0
0.209666 8.97852e-05 0.0
0.210432 -0.00110159 0.0
0 0 0.0
0.0479095 -7.32096e-05 0.0
0.128874 -0.000706821 0.0
0.0910969 -0.000363715 0.0
0.127385 -3.50993e-07 0.0
0.159944 9.74382e-05 0.0
0 0 0.0
0.0896284 -5.12431e-05 0.0
0.0469297 -4.79913e-05 0.0
0.188437 -0.00131653 0.0
0.161315 -0.00108749 0.0
0.227517 -0.00131802 0.0
0.246797 -0.000384624 0.0
0.249242 -0.000657536 0.0
0.246851 -0.000952817 0.0
0.239674 -0.00113569 0.0
0.239217 -0.000108446 0.0
0.226922 6.18377e-05 0.0
0.187325 0.000351227 0.0
0.209567 0.000284477 0.0
0.21046 -0.00141808 0.0
0 0 0.0
0.0481516 -0.000144983 0.0
0.0914834 -0.000563133 0.0
0.129264 -0.00105625 0.0
0.127512 0.000226384 0.0
0.160011 0.000328963 0.0
0 0 0.0
0.0469113 -1.25655e-05 0.0
0.0897044 6.28425e-05 0.0
0.188545 -0.00163003 0.0
0.161602 -0.0015192 0.0
0.227407 -0.00159196 0.0
0.239349 -0.00149959 0.0
0.246511 -0.000368322 0.0
0.24892 -0.000726794 0.0
0.246624 -0.00108404 0.0
0.238919 5.34448e-06 0.0
0.226709 0.00024123 0.0
0.18729 0.000579447 0.0
0.209418 0.000549322 0.0
0.210448 -0.00182008 0.0
0 0 0.0
0.0485446 -0.000228426 0.0
0.12987 -0.00159397 0.0
0.0921787 -0.000890949 0.0
0.127648 0.000473963 0.0
0.160084 0.000662328 0.0
0.0469894 4.14245e-05 0.0
0 0 0.0
0.0899261 0.000270025 0.0
0.161907 -0.00206648 0.0
0.188692 -0.00228943 0.0
0.227131 -0.00213197 0.0
0.238993 -0.00181837 0.0
0.246233 -0.00128284 0.0
0.24593 -0.000320581 0.0
0.248493 -0.000810435 0.0
0.238522 0.000154587 0.0
0.226299 0.000569383 0.0
0.187203 0.00108209 0.0
0.209198 0.000893025 0.0
0.21038 -0.00231549 0.0
0 0 0.0
0.0491228 -0.000340371 0.0
0.0930283 -0.00123816 0.0
0.162245 -0.00271984 0.0
0.1304 -0.00206866 0.0
0.12789 0.000861773 0.0
0.160133 0.00100582 0.0
0.0471947 0.000120521 0.0
0 0 0.0
0.0902347 0.000487361 0.0
0.210258 -0.00280431 0.0
0.188733 -0.00276659 0.0
0.23863 -0.00211671 0.0
0.226792 -0.00262749 0.0
0.245466 -0.00161055 0.0
0.24794 -0.000899704 0.0
0.245497 -0.000284338 0.0
0.238004 0.000336525 0.0
0.225937 0.000820375 0.0
0.187084 0.00145279 0.0
0.160234 0.00165699 0.0
0.208889 0.00131349 0.0
0 0 0.0
0.094065 -0.0015988 0.0
0.0499411 -0.000466381 0.0
0.162543 -0.00333081 0.0
0.131355 -0.00279477 0.0
0.128239 0.00134316 0.0
0 0 0.0
0.0475587 0.000209841 0.0
0.0908575 0.000820607 0.0
0.210074 -0.00335275 0.0
0.188773 -0.00369092 0.0
0.238178 -0.00243299 0.0
0.22635 -0.00319024 0.0
0.2449 -0.00182169 0.0
0.247231 -0.00100157 0.0
0.244995 -0.000242861 0.0
0.160282 0.00215341 0.0
0.208532 0.00173138 0.0
0.237337 0.000549233 0.0
0.225499 0.00110658 0.0
0.186882 0.00203052 0.0
0 0 0.0
0.0508993 -0.000581032 0.0
0.0954345 -0.00201697 0.0
0.162952 -0.00414033 0.0
0.13237 -0.00347404 0.0
0.0916755 0.00117262 0.0
0.12879 0.00196928 0.0
0 0 0.0
0.0481481 0.000326999 0.0
0.209748 -0.00408511 0.0
0.188724 -0.00452258 0.0
0.23748 -0.00288756 0.0
0.225761 -0.00381164 0.0
0.244268 -0.00204762 0.0
0.246371 -0.00111569 0.0
0.243793 -0.000144014 0.0
0.160394 0.00285777 0.0
0.236519 0.000789528 0.0
0.208091 0.00219545 0.0
0.224577 0.00165003 0.0
0.186518 0.00285496 0.0
0 0 0.0
0.0973356 -0.00246623 0.0
0.0522148 -0.000715738 0.0
0.163564 -0.00518727 0.0
0.133642 -0.00416994 0.0
0.0926315 0.00151174 0.0
0.129462 0.00254975 0.0
0 0 0.0
0.0488659 0.000434354 0.0
0.188646 -0.00542182 0.0
0.209321 -0.00488702 0.0
0.236614 -0.00339147 0.0
0.243277 -0.00236946 0.0
0.225026 -0.00449655 0.0
0.24531 -0.00124433 0.0
0.242717 -8.03731e-05 0.0
0.235511 0.00104654 0.0
0.243999 -0.00199378 0.0
0.16052 0.00358474 0.0
0.223674 0.00209609 0.0
0.207211 0.00297999 0.0
0.186222 0.00338576 0.0
0 0 0.0
0.0991692 -0.00281997 0.0
0.0537346 -0.000849514 0.0
0.164034 -0.00589357 0.0
0.135158 -0.00485597 0.0
0.0939332 0.00185818 0.0
0.130175 0.00305773 0.0
0 0 0.0
0.0497983 0.000527163 0.0
0.188538 -0.00636207 0.0
0.208768 -0.00574982 0.0
0.235564 -0.00393134 0.0
0.22413 -0.00523751 0.0
0.241485 -0.00289316 0.0
0.243661 -0.000692306 0.0
0.238749 0.00062655 0.0
0.229273 0.00188831 0.0
0.243343 -0.00146621 0.0
0.160735 0.00432486 0.0
0.215232 0.00302397 0.0
0.201673 0.00377681 0.0
0.185685 0.00431785 0.0
0 0 0.0
0.101474 -0.00318072 0.0
0.0554382 -0.000959499 0.0
0.164783 -0.00676496 0.0
0.136943 -0.00549352 0.0
0.131407 0.00371235 0.0
0.0955118 0.00217772 0.0
0 0 0.0
0.0510496 0.000626359 0.0
0.188432 -0.00732093 0.0
0.208114 -0.00665622 0.0
0.239998 -0.00328212 0.0
0.223069 -0.00602151 0.0
0.234329 -0.00452316 0.0
0.240667 1.50818e-05 0.0
0.233484 0.00149384 0.0
0.221808 0.00288056 0.0
0.241748 -0.00164024 0.0
0.161028 0.00501297 0.0
0.205689 0.0040744 0.0
0.185187 0.00505197 0.0
0 0 0.0
0.0571941 -0.00104756 0.0
0.104028 -0.00347806 0.0
0.138709 -0.00596997 0.0
0.188372 -0.00826096 0.0
0.165689 -0.00758453 0.0
0.132704 0.00421516 0.0
0.0973107 0.00244733 0.0
0.0523116 0.000721664 0.0
0 0 0.0
0.222068 -0.00670394 0.0
0.207373 -0.00758644 0.0
0.238684 -0.00361311 0.0
0.232889 -0.00515187 0.0
0.220422 0.00336768 0.0
0.239058 7.36979e-05 0.0
0.231936 0.00177537 0.0
0.239927 -0.00183652 0.0
0.184706 0.00574069 0.0
0.161582 0.00574981 0.0
0.20428 0.00490897 0.0
0 0 0.0
0.0592433 -0.00109848 0.0
0.107106 -0.00370914 0.0
0.141017 -0.00645038 0.0
0.188376 -0.00895988 0.0
0.167102 -0.00846603 0.0
0.134233 0.00460663 0.0
0.0995311 0.00266246 0.0
0.05376 0.000776883 0.0
0 0 0.0
0.136034 0.00486082 0.0
0.220972 -0.00739435 0.0
0.206312 -0.00880209 0.0
0.230543 -0.00609122 0.0
0.237239 -0.00396041 0.0
0.21826 0.00401259 0.0
0.230165 0.00205211 0.0
0.237213 0.00011111 0.0
0.237858 -0.00206062 0.0
0.184263 0.00636515 0.0
0.162242 0.006213 0.0
0.203068 0.00549552 0.0
0 0 0.0
0.0613455 -0.00112425 0.0
0.110119 -0.00384808 0.0
0.143586 -0.00679935 0.0
0.188499 -0.00979067 0.0
0.168538 -0.00906156 0.0
0.0551867 0.000787482 0.0
0.101699 0.00274227 0.0
0 0 0.0
0.137655 0.00495352 0.0
0.219525 -0.00824199 0.0
0.205485 -0.00969921 0.0
0.228631 -0.00678441 0.0
0.235167 -0.00444216 0.0
0.216782 0.00435693 0.0
0.228181 0.00230415 0.0
0.23555 -0.00231576 0.0
0.234112 0.000127516 0.0
0.18398 0.00673323 0.0
0.163095 0.00649567 0.0
0.201814 0.00600747 0.0
0 0 0.0
0.0635316 -0.00114331 0.0
0.11321 -0.00391099 0.0
0.14682 -0.00703984 0.0
0.188899 -0.01067 0.0
0.204688 -0.0105229 0.0
0.170259 -0.00950463 0.0
0.0566612 0.00076652 0.0
0.103934 0.00271999 0.0
0 0 0.0
0.139733 0.00488131 0.0
0.21742 -0.00934781 0.0
0.226966 -0.00735571 0.0
0.232879 -0.00494449 0.0
0.233653 -0.00253369 0.0
0.215224 0.00465535 0.0
0.225976 0.00249805 0.0
0.231674 9.20195e-05 0.0
0.164204 0.00656589 0.0
0.183737 0.00705904 0.0
0.200557 0.00638293 0.0
0 0 0.0
0.065735 -0.00117429 0.0
0.116384 -0.00388648 0.0
0.149875 -0.00710076 0.0
0.189316 -0.0110777 0.0
0.204 -0.0112268 0.0
0.172251 -0.00977833 0.0
0.058106 0.000708324 0.0
0.106193 0.00259107 0.0
0 0 0.0
0.165182 0.00645246 0.0
0.10833 0.00236651 0.0
0.142195 0.00456365 0.0
0.215796 -0.010116 0.0
0.225214 -0.00789735 0.0
0.229172 -0.00570326 0.0
0.231641 -0.00276863 0.0
0.229635 2.51396e-05 0.0
0.213245 0.00491439 0.0
0.222587 0.00265591 0.0
0.18366 0.00714864 0.0
0.199526 0.00654896 0.0
0.21447 -0.0106432 0.0
0 0 0.0
0.0678431 -0.00114288 0.0
0.153065 -0.0070201 0.0
0.119521 -0.00381071 0.0
0.203459 -0.0117743 0.0
0.190286 -0.0115136 0.0
0.17448 -0.00986889 0.0
0.0595433 0.000632498 0.0
0 0 0.0
0.183795 0.00696814 0.0
0.166617 0.00606635 0.0
0.144396 0.00406187 0.0
0.0605823 0.000566822 0.0
0.110316 0.00201498 0.0
0.222951 -0.00855364 0.0
0.227053 -0.00611605 0.0
0.228774 -0.00312525 0.0
0.226517 -0.0034289 0.0
0.227481 -8.75531e-05 0.0
0.211218 0.00498641 0.0
0.220002 0.00260839 0.0
0.198584 0.00653708 0.0
0.213192 -0.0110861 0.0
0.0697455 -0.00112082 0.0
0 0 0.0
0.155779 -0.00687745 0.0
0.122577 -0.00368877 0.0
0.203101 -0.0121308 0.0
0.19109 -0.0116322 0.0
0.176921 -0.00979886 0.0
0 0 0.0
0.184113 0.00648638 0.0
0.168434 0.00525052 0.0
0.146112 0.00352101 0.0
0.0615297 0.000432629 0.0
0.112 0.00160954 0.0
0.219648 -0.0093547 0.0
0.224863 -0.00651369 0.0
0.224213 -0.00376365 0.0
0.223204 -0.000458506 0.0
0.209226 0.00483439 0.0
0.217356 0.00237548 0.0
0.197337 0.00610629 0.0
0.21176 -0.0114941 0.0
0 0 0.0
0.0717672 -0.00106822 0.0
0.158969 -0.0066566 0.0
0.125249 -0.00357113 0.0
0.179471 -0.00959399 0.0
0.202967 -0.0123087 0.0
0.192648 -0.011589 0.0
0 0 0.0
0 0 0.0
0.184631 0.00566965 0.0
0.170057 0.00428668 0.0
0.148006 0.00273685 0.0
0.113363 0.00114709 0.0
0.062236 0.000280316 0.0
0.217362 -0.00981683 0.0
0.221992 -0.00702104 0.0
0.215245 0.00204614 0.0
0.2211 -0.00426501 0.0
0.220185 -0.000903885 0.0
0.20733 0.0043879 0.0
0.196602 0.00540078 0.0
0.215572 -0.0101211 0.0
0.210473 -0.0117501 0.0
0.0737435 -0.00104374 0.0
0.128085 -0.00344631 0.0
0.162129 -0.00643966 0.0
0.181624 -0.00938732 0.0
0.203038 -0.0123219 0.0
0.193768 -0.0114958 0.0
0 0 0.0
0 0 0.0
0.171206 0.00340585 0.0
0.185399 0.00426225 0.0
0.11423 0.000714262 0.0
0.149776 0.00174192 0.0
0.0626574 0.000140939 0.0
0.217881 -0.00772498 0.0
0.218032 -0.0048613 0.0
0.196045 0.00435852 0.0
0.213181 0.00155299 0.0
0.217851 -0.00136556 0.0
0.204975 0.00331184 0.0
0.213922 -0.0103762 0.0
0.209062 -0.0119245 0.0
0.203292 -0.0122489 0.0
0.0756631 -0.00107501 0.0
0.130853 -0.00338796 0.0
0.165576 -0.00627917 0.0
0.18422 -0.00912436 0.0
0.195726 -0.0112442 0.0
0 0 0.0
0 0 0.0
0.172758 0.00192988 0.0
0.186117 0.00287306 0.0
0.1149 0.000171434 0.0
0.150917 0.000839648 0.0
0.0628606 6.20434e-06 0.0
0.215572 -0.00192569 0.0
0.215102 -0.00554379 0.0
0.215228 -0.00822948 0.0
0.195661 0.003053 0.0
0.210753 0.000691994 0.0
0.203483 0.00215373 0.0
0.186743 0.00136271 0.0
0.211314 -0.010789 0.0
0 0 0.0
0.208224 -0.0120495 0.0
0.197409 -0.0110979 0.0
0.203688 -0.0121799 0.0
0.0774749 -0.0011079 0.0
0.168104 -0.00625946 0.0
0.133808 -0.00347495 0.0
0.187309 -0.00900544 0.0
0 0 0.0
0 0 0.0
0 0 0.0
0 0 0.0
0 0 0.0
0.0627946 -0.000114538 0.0
0.151644 -5.9103e-05 0.0
0.17378 0.000640482 0.0
0.115108 -0.000242576 0.0
0.212777 -0.0027957 0.0
0.212401 -0.00633098 0.0
0.212766 -0.00878913 0.0
0.202364 0.00102778 0.0
0.195365 0.00152937 0.0
0.207618 -0.000889181 0.0
0.195169 0.000142578 0.0
0.187091 0.000219769 0.0
0.209724 -0.0111798 0.0
0.207574 -0.0122178 0.0
0 0 0.0
-8.69241e-05 7.8925e-05 0.0
0 0 0.0
-0.000745401 0.00718395 0.0
0.204193 -0.012235 0.0
0.19864 -0.0111056 0.0
0.0795574 -0.0012035 0.0
0.170906 -0.00642028 0.0
0.136512 -0.00371491 0.0
0.189801 -0.00915222 0.0
0 0 0.0
0 0 0.0
0 0 0.0
-0.00065333 0.0049572 0.0
-0.000329593 0.0007162 0.0
-0.000735361 0.000729266 0.0
0 0 0.0
0.0624621 -0.000236219 0.0
0.151904 -0.000757445 0.0
0.174411 -0.000601978 0.0
0.114873 -0.000691462 0.0
0.210225 -0.00384733 0.0
0.209945 -0.00722713 0.0
0.210562 -0.00940946 0.0
0.201387 -0.000205584 0.0
0.206072 -0.00197224 0.0
0.194929 -0.00124661 0.0
0.187379 -0.00164563 0.0
0.208347 -0.0116874 0.0
0.207535 -0.012389 0.0
0.206052 -0.0126048 0.0
0 0 0.0
-0.000704744 0.000320164 0.0
0 0 0.0
0 0 0.0
-0.00245474 0.0136279 0.0
-0.00278954 0.0104341 0.0
0.203755 -0.0123127 0.0
0.200195 -0.0113675 0.0
0.139022 -0.0040926 0.0
0.0816533 -0.00138443 0.0
0.173668 -0.0068685 0.0
0.192099 -0.0096056 0.0
0 0 0.0
-0.00164771 0.0038089 0.0
-0.00230946 0.00685595 0.0
-0.00167804 0.00232222 0.0
-0.00237508 0.00163764 0.0
0 0 0.0
0.061957 -0.000339362 0.0
0.151812 -0.00150785 0.0
0.174643 -0.00174743 0.0
0.114318 -0.00105376 0.0
0.20791 -0.00501631 0.0
0.207784 -0.00822895 0.0
0.208618 -0.0101506 0.0
0.19997 -0.00239403 0.0
0.204626 -0.0031192 0.0
0.194593 -0.00285676 0.0
0.17454 -0.0027923 0.0
0.187375 -0.00303224 0.0
0.207378 -0.0122191 0.0
0.206768 -0.0129482 0.0
0.205071 -0.0129348 0.0
0 0 0.0
-0.00233791 0.000649534 0.0
0 0 0.0
0 0 0.0
0 0 0.0
0 0 0.0
-0.00556392 0.0106943 0.0
-0.000566743 0.0107018 0.0
-0.00227416 0.0161476 0.0
-0.00551778 0.0199647 0.0
-0.00526767 0.0153467 0.0
0 0 0.0
6.72761e-05 0.0126764 0.0
0.201974 -0.0122181 0.0
0.193894 -0.0102662 0.0
0 0 0.0
0.0843348 -0.00170233 0.0
0.142067 -0.00472147 0.0
0.176869 -0.00792666 0.0
0 0 0.0
0 0 0.0
-0.00429811 0.00655995 0.0
-0.0043562 0.00413364 0.0
-0.00509116 0.00248471 0.0
0 0 0.0
0.0612213 -0.000432661 0.0
0.151219 -0.00225351 0.0
0.113431 -0.00135876 0.0
0.174113 -0.00350397 0.0
0.20588 -0.00628979 0.0
0.206327 -0.00904707 0.0
0.206905 -0.0110499 0.0
0.199183 -0.00373056 0.0
0.203023 -0.00461677 0.0
0.19412 -0.00436126 0.0
0.187106 -0.00395689 0.0
0.206041 -0.0135218 0.0