# vtk DataFile Version 3.0
Mesh NS-CD Problem
ASCII
DATASET UNSTRUCTURED_GRID
POINTS 10839 float
-2 0.3 0.0
-2 0.4 0.0
-2 0.35 0.0
-2 0.45 0.0
-2 0.5 0.0
-2 0.55 0.0
-2 0 0.0
-2 0.05 0.0
-2 0.85 0.0
-2 0.9 0.0
-2 0.1 0.0
-2 0.15 0.0
-2 0.25 0.0
-2 0.2 0.0
-1.96653 0.266667 0.0
-1.96524 0.415385 0.0
-1.96485 0.315 0.0
-1.96348 0.363636 0.0
-1.96414 0.464286 0.0
-2 0.6 0.0
-1.96538 0.584615 0.0
-1.96538 0.538462 0.0
-1.94979 0 0.0
-1.96653 0.0666666 0.0
-1.93306 0.0333333 0.0
-2 0.8 0.0
-2 0.75 0.0
-2 0.7 0.0
-2 0.65 0.0
-1.96249 0.7375 0.0
-1.96666 0.833333 0.0
-2 1 0.0
-2 0.95 0.0
-1.96249 0.8875 0.0
-1.96666 0.933333 0.0
-1.96234 0.1125 0.0
-1.96653 0.166667 0.0
-1.93724 0.225 0.0
-1.92971 0.28 0.0
-1.93048 0.380769 0.0
-1.93048 0.423077 0.0
-1.89958 0.3375 0.0
-1.9292 0.484203 0.0
-1.92117 0.530907 0.0
-1.96363 0.636364 0.0
-1.93076 0.576923 0.0
-1.89958 0 0.0
-1.88703 0.0375 0.0
-1.90963 0.08 0.0
-1.86611 0.0666666 0.0
-1.93749 0.775 0.0
-1.93635 0.672727 0.0
-1.92999 0.72 0.0
-1.93332 0.866667 0.0
-1.92856 0.821429 0.0
-1.94999 1 0.0
-1.92499 0.9625 0.0
-1.92499 0.925 0.0
-1.89998 0.9 0.0
-1.89958 0.125 0.0
-1.92827 0.178571 0.0
-1.89958 0.233333 0.0
-1.89045 0.290909 0.0
-1.86096 0.311538 0.0
-1.89241 0.392857 0.0
-1.89334 0.448489 0.0
-1.85655 0.357143 0.0
-1.89614 0.653846 0.0
-1.89427 0.504121 0.0
-1.8952 0.559753 0.0
-1.89614 0.615385 0.0
-1.84937 0 0.0
-1.83264 0.0333333 0.0
-1.85655 0.107143 0.0
-1.81172 0.075 0.0
-1.89998 0.766667 0.0
-1.89089 0.709091 0.0
-1.87498 0.85 0.0
-1.85998 0.79 0.0
-1.88748 0.8125 0.0
-1.89998 1 0.0
-1.88748 0.9625 0.0
-1.86664 0.933333 0.0
-1.85712 0.892857 0.0
-1.87448 0.15 0.0
-1.86611 0.194444 0.0
-1.83264 0.133333 0.0
-1.83264 0.2625 0.0
-1.82068 0.321429 0.0
-1.85664 0.404762 0.0
-1.85674 0.452381 0.0
-1.85683 0.5 0.0
-1.81184 0.375 0.0
-1.85712 0.642857 0.0
-1.85693 0.547619 0.0
-1.85702 0.595238 0.0
-1.79917 0 0.0
-1.78482 0.0357143 0.0
-1.79917 0.116667 0.0
-1.76569 0.0666666 0.0
-1.85452 0.745455 0.0
-1.82689 0.692308 0.0
-1.81815 0.781818 0.0
-1.82497 0.825 0.0
-1.84997 1 0.0
-1.8333 0.958333 0.0
-1.81247 0.8875 0.0
-1.81247 0.925 0.0
-1.81742 0.218182 0.0
-1.82427 0.175 0.0
-1.77634 0.145455 0.0
-1.79144 0.242308 0.0
-1.78482 0.285714 0.0
-1.77469 0.332653 0.0
-1.81215 0.529762 0.0
-1.81194 0.422619 0.0
-1.81203 0.470238 0.0
-1.76714 0.392857 0.0
-1.81234 0.625 0.0
-1.79732 0.571429 0.0
-1.74896 0 0.0
-1.73222 0.0333333 0.0
-1.75398 0.105 0.0
-1.71883 0.07 0.0
-1.79227 0.730769 0.0
-1.78007 0.679121 0.0
-1.75765 0.769231 0.0
-1.78178 0.818182 0.0
-1.78996 0.86 0.0
-1.79996 1 0.0
-1.78568 0.964286 0.0
-1.76663 0.922222 0.0
-1.76569 0.1875 0.0
-1.73222 0.15 0.0
-1.74896 0.25 0.0
-1.73714 0.304762 0.0
-1.76743 0.537202 0.0
-1.72869 0.343878 0.0
-1.76732 0.485119 0.0
-1.76723 0.440476 0.0
-1.72243 0.410714 0.0
-1.76757 0.607143 0.0
-1.69875 0 0.0
-1.68369 0.035 0.0
-1.69875 0.1125 0.0
-1.66528 0.075 0.0
-1.74341 0.708974 0.0
-1.73324 0.665934 0.0
-1.70441 0.74478 0.0
-1.71423 0.785714 0.0
-1.72303 0.826923 0.0
-1.74541 0.854545 0.0
-1.74541 0.890909 0.0
-1.74996 1 0.0
-1.73745 0.9625 0.0
-1.71359 0.927273 0.0
-1.68716 0.153846 0.0
-1.7131 0.214286 0.0
-1.70725 0.275 0.0
-1.69712 0.321939 0.0
-1.72279 0.589286 0.0
-1.72261 0.5 0.0
-1.7227 0.544643 0.0
-1.6827 0.355102 0.0
-1.67773 0.428571 0.0
-1.70763 0.464286 0.0
-1.70369 0.62449 0.0
-1.64854 0 0.0
-1.63181 0.0375 0.0
-1.64137 0.142857 0.0
-1.61764 0.0769231 0.0
-1.69458 0.703846 0.0
-1.67471 0.657437 0.0
-1.66143 0.727637 0.0
-1.67125 0.768571 0.0
-1.67851 0.821429 0.0
-1.68841 0.861538 0.0
-1.70904 0.890909 0.0
-1.69995 1 0.0
-1.68176 0.963636 0.0
-1.67267 0.927273 0.0
-1.65427 0.187143 0.0
-1.66718 0.231429 0.0
-1.66554 0.3 0.0
-1.67802 0.571429 0.0
-1.67792 0.523809 0.0
-1.6367 0.366327 0.0
-1.63682 0.423469 0.0
-1.62568 0.502976 0.0
-1.6629 0.470238 0.0
-1.65254 0.618367 0.0
-1.6059 0.307143 0.0
-1.59833 0 0.0
-1.58288 0.0384615 0.0
-1.60563 0.169643 0.0
-1.58179 0.112271 0.0
-1.56964 0.0714286 0.0
-1.64574 0.690385 0.0
-1.62827 0.751429 0.0
-1.63371 0.791071 0.0
-1.64279 0.857143 0.0
-1.65378 0.896154 0.0
-1.64994 1 0.0
-1.6363 0.963636 0.0
-1.61916 0.930769 0.0
-1.61345 0.209107 0.0
-1.62126 0.248571 0.0
-1.56989 0.196429 0.0
-1.63324 0.553571 0.0
-1.58846 0.535714 0.0
-1.59408 0.361905 0.0
-1.59161 0.402211 0.0
-1.58832 0.464286 0.0
-1.61504 0.598581 0.0
-1.59683 0.64359 0.0
-1.57899 0.274107 0.0
-1.56176 0.322381 0.0
-1.54812 0 0.0
-1.53378 0.0357143 0.0
-1.54593 0.147619 0.0
-1.53385 0.0732143 0.0
-1.53393 0.110714 0.0
-1.58522 0.704286 0.0
-1.58709 0.745 0.0
-1.58896 0.785714 0.0
-1.60695 0.830357 0.0
-1.60707 0.892857 0.0
-1.59993 1 0.0
-1.58454 0.965385 0.0
-1.57135 0.928571 0.0
-1.55209 0.241071 0.0
-1.5291 0.198214 0.0
-1.56936 0.570918 0.0
-1.54369 0.517857 0.0
-1.5464 0.380952 0.0
-1.54564 0.427721 0.0
-1.54488 0.47449 0.0
-1.55026 0.606122 0.0
-1.54222 0.677143 0.0
-1.52943 0.282857 0.0
-1.52143 0.33619 0.0
-1.49792 0 0.0
-1.49802 0.05 0.0
-1.49822 0.15 0.0
-1.49312 0.1 0.0
-1.5423 0.717143 0.0
-1.54419 0.767857 0.0
-1.54727 0.819048 0.0
-1.57122 0.861905 0.0
-1.53553 0.914286 0.0
-1.54992 1 0.0
-1.53563 0.964286 0.0
-1.49842 0.25 0.0
-1.48831 0.2 0.0
-1.5214 0.558929 0.0
-1.49891 0.5 0.0
-1.49871 0.4 0.0
-1.47631 0.45 0.0
-1.49911 0.6 0.0
-1.49921 0.65 0.0
-1.49931 0.7 0.0
-1.48111 0.35 0.0
-1.48351 0.3 0.0
-1.44771 0 0.0
-1.44782 0.05 0.0
-1.44804 0.15 0.0
-1.44793 0.1 0.0
-1.49941 0.75 0.0
-1.49951 0.8 0.0
-1.49981 0.95 0.0
-1.49961 0.85 0.0
-1.49971 0.9 0.0
-1.49991 1 0.0
-1.44826 0.25 0.0
-1.43815 0.2 0.0
-1.47151 0.55 0.0
-1.44881 0.5 0.0
-1.44859 0.4 0.0
-1.42619 0.45 0.0
-1.44913 0.65 0.0
-1.44902 0.6 0.0
-1.44935 0.75 0.0
-1.44924 0.7 0.0
-1.43972 0.35 0.0
-1.43336 0.3 0.0
-1.3975 0 0.0
-1.39762 0.05 0.0
-1.39786 0.15 0.0
-1.39274 0.1 0.0
-1.44957 0.85 0.0
-1.44946 0.8 0.0
-1.4523 0.95 0.0
-1.44968 0.9 0.0
-1.4499 1 0.0
-1.3981 0.25 0.0
-1.38798 0.2 0.0
-1.42141 0.55 0.0
-1.3987 0.5 0.0
-1.39834 0.35 0.0
-1.37845 0.4 0.0
-1.37607 0.45 0.0
-1.40784 0.65 0.0
-1.39894 0.6 0.0
-1.41185 0.75 0.0
-1.39918 0.7 0.0
-1.38322 0.3 0.0
-1.34729 0 0.0
-1.34492 0.05 0.0
-1.34018 0.15 0.0
-1.34255 0.1 0.0
-1.40707 0.85 0.0
-1.39941 0.8 0.0
-1.39977 0.95 0.0
-1.39965 0.9 0.0
-1.39989 1 0.0
-1.33781 0.2 0.0
-1.33544 0.25 0.0
-1.37131 0.55 0.0
-1.34859 0.5 0.0
-1.33833 0.4 0.0
-1.3307 0.35 0.0
-1.32595 0.45 0.0
-1.34885 0.6 0.0
-1.36655 0.65 0.0
-1.36179 0.75 0.0
-1.34911 0.7 0.0
-1.33307 0.3 0.0
-1.29708 0 0.0
-1.29722 0.05 0.0
-1.2975 0.15 0.0
-1.29236 0.1 0.0
-1.35703 0.85 0.0
-1.34937 0.8 0.0
-1.34988 1 0.0
-1.34962 0.9 0.0
-1.35226 0.95 0.0
-1.28528 0.25 0.0
-1.28764 0.2 0.0
-1.28931 0.35 0.0
-1.32121 0.55 0.0
-1.29848 0.5 0.0
-1.28709 0.45 0.0
-1.2982 0.4 0.0
-1.29876 0.6 0.0
-1.31647 0.65 0.0
-1.29918 0.75 0.0
-1.29904 0.7 0.0
-1.28292 0.3 0.0
-1.24687 0 0.0
-1.24702 0.05 0.0
-1.24717 0.1 0.0
-1.24732 0.15 0.0
-1.29946 0.85 0.0
-1.29932 0.8 0.0
-1.29987 1 0.0
-1.29974 0.95 0.0
-1.30462 0.9 0.0
-1.24762 0.25 0.0
-1.23747 0.2 0.0
-1.24792 0.35 0.0
-1.22807 0.4 0.0
-1.27111 0.55 0.0
-1.24837 0.5 0.0
-1.24822 0.45 0.0
-1.24867 0.6 0.0
-1.26639 0.65 0.0
-1.26167 0.75 0.0
-1.24897 0.7 0.0
-1.23277 0.3 0.0
-1.19667 0 0.0
-1.19683 0.05 0.0
-1.18964 0.15 0.0
-1.19198 0.1 0.0
-1.25695 0.85 0.0
-1.24927 0.8 0.0
-1.25223 0.95 0.0
-1.24987 1 0.0
-1.24957 0.9 0.0
-1.1873 0.2 0.0
-1.18496 0.25 0.0
-1.18028 0.35 0.0
-1.17794 0.4 0.0
-1.1981 0.45 0.0
-1.19842 0.55 0.0
-1.19826 0.5 0.0
-1.19858 0.6 0.0
-1.19874 0.65 0.0
-1.19906 0.75 0.0
-1.1989 0.7 0.0
-1.18262 0.3 0.0
-1.14646 0 0.0
-1.14663 0.05 0.0
-1.1418 0.1 0.0
-1.13713 0.2 0.0
-1.14697 0.15 0.0
-1.20691 0.85 0.0
-1.20926 0.8 0.0
-1.20221 0.95 0.0
-1.19986 1 0.0
-1.20456 0.9 0.0
-1.13997 0.3 0.0
-1.14731 0.25 0.0
-1.13781 0.4 0.0
-1.13014 0.35 0.0
-1.12548 0.45 0.0
-1.14815 0.5 0.0
-1.15962 0.55 0.0
-1.14849 0.6 0.0
-1.15745 0.65 0.0
-1.16155 0.75 0.0
-1.14917 0.8 0.0
-1.14883 0.7 0.0
-1.09625 0 0.0
-1.09661 0.1 0.0
-1.09393 0.05 0.0
-1.09697 0.2 0.0
-1.08929 0.15 0.0
-1.15687 0.85 0.0
-1.14985 1 0.0
-1.15219 0.95 0.0
-1.14951 0.9 0.0
-1.09733 0.3 0.0
-1.08465 0.25 0.0
-1.09769 0.4 0.0
-1.08 0.35 0.0
-1.08661 0.45 0.0
-1.09804 0.5 0.0
-1.12082 0.55 0.0
-1.10916 0.8 0.0
-1.10629 0.7 0.0
-1.0984 0.6 0.0
-1.11616 0.65 0.0
-1.11149 0.75 0.0
-1.04604 0 0.0
-1.04623 0.05 0.0
-1.04642 0.1 0.0
-1.0468 0.2 0.0
-1.03911 0.15 0.0
-1.09948 0.9 0.0
-1.0993 0.85 0.0
-1.09984 1 0.0
-1.09966 0.95 0.0
-1.04718 0.3 0.0
-1.03449 0.25 0.0
-1.04756 0.4 0.0
-1.02986 0.35 0.0
-1.04775 0.45 0.0
-1.04794 0.5 0.0
-1.04813 0.55 0.0
-1.05911 0.8 0.0
-1.04831 0.6 0.0
-1.06376 0.7 0.0
-1.0485 0.65 0.0
-1.04888 0.75 0.0
-0.995833 0 0.0
-0.991231 0.1 0.0
-0.996033 0.05 0.0
-0.986629 0.2 0.0
-0.98893 0.15 0.0
-1.05447 0.9 0.0
-1.04926 0.85 0.0
-1.04983 1 0.0
-1.04964 0.95 0.0
-0.984328 0.25 0.0
-0.99703 0.3 0.0
-0.997429 0.4 0.0
-0.997628 0.45 0.0
-0.979726 0.35 0.0
-0.997827 0.5 0.0
-0.998027 0.55 0.0
-0.998226 0.6 0.0
-0.961416 0.475 0.0
-1.00907 0.8 0.0
-0.998426 0.65 0.0
-0.998625 0.7 0.0
-1.01138 0.75 0.0
-0.945625 0 0.0
-0.946044 0.1 0.0
-0.943334 0.05 0.0
-0.946463 0.2 0.0
-0.938752 0.15 0.0
-1.00444 0.9 0.0
-1.00675 0.85 0.0
-0.999821 1 0.0
-1.00213 0.95 0.0
-0.93417 0.25 0.0
-0.946881 0.3 0.0
-0.9473 0.4 0.0
-0.929588 0.35 0.0
-0.925005 0.45 0.0
-0.960371 0.525 0.0
-0.959325 0.575 0.0
-0.958279 0.625 0.0
-0.922714 0.5 0.0
-0.959017 0.8 0.0
-0.957233 0.675 0.0
-0.952999 0.7125 0.0
-0.948766 0.75 0.0
-0.895417 0 0.0
-0.895855 0.1 0.0
-0.893136 0.05 0.0
-0.896294 0.2 0.0
-0.888573 0.15 0.0
-0.949184 0.85 0.0
-0.954415 0.9 0.0
-0.949812 1 0.0
-0.949603 0.95 0.0
-0.884011 0.25 0.0
-0.896733 0.3 0.0
-0.874887 0.45 0.0
-0.879449 0.35 0.0
-0.897171 0.4 0.0
-0.920423 0.55 0.0
-0.918132 0.6 0.0
-0.915841 0.65 0.0
-0.872606 0.5 0.0
-0.908968 0.8 0.0
-0.91355 0.7 0.0
-0.898707 0.75 0.0
-0.845208 0 0.0
-0.845438 0.05 0.0
-0.845667 0.1 0.0
-0.845896 0.15 0.0
-0.833853 0.25 0.0
-0.846126 0.2 0.0
-0.899146 0.85 0.0
-0.904386 0.9 0.0
-0.899584 0.95 0.0
-0.899804 1 0.0
-0.838062 0.35 0.0
[...]
POINT_DATA 10839
VECTORS Velocity float
0.21 0 0.0
0.24 0 0.0
0.2275 0 0.0
0.2475 0 0.0
0.25 0 0.0
0.2475 0 0.0
0 0 0.0
0.0475 0 0.0
0.1275 0 0.0
0.09 0 0.0
0.09 0 0.0
0.1275 0 0.0
0.1875 0 0.0
0.16 0 0.0
0.195557 -2.43907e-05 0.0
0.242841 -3.32278e-05 0.0
0.215776 -2.90129e-05 0.0
0.231406 -3.26926e-05 0.0
0.248725 -3.53719e-05 0.0
0.24 0 0.0
0.24284 -3.31534e-05 0.0
0.24852 -3.40656e-05 0.0
0 0 0.0
0.062224 -4.27936e-06 0.0
0.0322271 -2.8297e-06 0.0
0.16 0 0.0
0.1875 0 0.0
0.21 0 0.0
0.2275 0 0.0
0.193592 -2.73774e-05 0.0
0.138887 -1.52347e-05 0.0
0 0 0.0
0.0475 0 0.0
0.0998414 -1.06015e-05 0.0
0.0622205 -4.32769e-06 0.0
0.0998462 -1.10754e-05 0.0
0.138891 -1.53683e-05 0.0
0.17438 -3.84434e-05 0.0
0.201606 -5.26106e-05 0.0
0.235787 -6.41811e-05 0.0
0.244085 -6.7144e-05 0.0
0.223602 -8.6011e-05 0.0
0.249751 -7.01417e-05 0.0
0.249044 -7.81477e-05 0.0
0.231404 -3.32215e-05 0.0
0.244081 -6.63514e-05 0.0
0 0 0.0
0.0361084 -5.46418e-06 0.0
0.0736129 -1.52533e-05 0.0
0.0622496 -1.67074e-05 0.0
0.17437 -3.78825e-05 0.0
0.220162 -5.25763e-05 0.0
0.201594 -5.26898e-05 0.0
0.115548 -2.27627e-05 0.0
0.146676 -3.52205e-05 0.0
0 0 0.0
0.0360873 -3.68589e-06 0.0
0.0693659 -1.19367e-05 0.0
0.0899832 -2.36492e-05 0.0
0.109391 -3.1959e-05 0.0
0.146692 -3.45354e-05 0.0
0.178902 -6.44068e-05 0.0
0.206293 -8.41475e-05 0.0
0.214501 -0.000113319 0.0
0.238527 -0.000100535 0.0
0.24735 -0.000104672 0.0
0.229607 -0.000127909 0.0
0.226323 -9.03664e-05 0.0
0.249983 -0.000105187 0.0
0.246426 -0.000102343 0.0
0.23668 -9.63777e-05 0.0
0 0 0.0
0.0322511 -6.17343e-06 0.0
0.0956971 -3.62801e-05 0.0
0.0694301 -2.73456e-05 0.0
0.178876 -6.34317e-05 0.0
0.206269 -8.47853e-05 0.0
0.127476 -4.89511e-05 0.0
0.165873 -8.02397e-05 0.0
0.152325 -5.75134e-05 0.0
0 0 0.0
0.0360793 -5.29307e-06 0.0
0.0621953 -1.6534e-05 0.0
0.0956295 -3.69758e-05 0.0
0.127525 -4.94172e-05 0.0
0.156661 -7.17219e-05 0.0
0.115601 -5.67117e-05 0.0
0.193627 -0.000118124 0.0
0.218142 -0.000149391 0.0
0.24094 -0.000136261 0.0
0.247737 -0.000141299 0.0
0.25 -0.000142837 0.0
0.234398 -0.000172879 0.0
0.229576 -0.000126145 0.0
0.247727 -0.000140989 0.0
0.240919 -0.000136022 0.0
0 0 0.0
0.034488 -8.54397e-06 0.0
0.103122 -5.57086e-05 0.0
0.0623042 -2.76972e-05 0.0
0.189727 -0.00010044 0.0
0.212988 -0.00014017 0.0
0.170533 -0.000108746 0.0
0.144329 -8.07626e-05 0.0
0 0 0.0
0.0398975 -9.10305e-06 0.0
0.0997855 -5.06732e-05 0.0
0.0693204 -2.69065e-05 0.0
0.170625 -0.000108858 0.0
0.144422 -8.25037e-05 0.0
0.124378 -8.36346e-05 0.0
0.18365 -0.000137526 0.0
0.204132 -0.000164586 0.0
0.222039 -0.000193713 0.0
0.249109 -0.000187413 0.0
0.244027 -0.000182431 0.0
0.24912 -0.000187422 0.0
0.238551 -0.000219954 0.0
0.234353 -0.000171866 0.0
0.244883 -0.000197532 0.0
0 0 0.0
0.0322929 -9.04704e-06 0.0
0.0940753 -5.85469e-05 0.0
0.0652188 -3.50216e-05 0.0
0.196696 -0.000150362 0.0
0.217871 -0.000184643 0.0
0.177437 -0.000152585 0.0
0.148689 -0.00010657 0.0
0.120328 -7.46683e-05 0.0
0 0 0.0
0.03439 -8.63271e-06 0.0
0.0716431 -3.51593e-05 0.0
0.152425 -0.000119471 0.0
0.127616 -0.000103792 0.0
0.187579 -0.000170442 0.0
0.211951 -0.000212207 0.0
0.248605 -0.000232513 0.0
0.225686 -0.000240362 0.0
0.249783 -0.000234197 0.0
0.246474 -0.000230261 0.0
0.242065 -0.000269324 0.0
0.23849 -0.000219336 0.0
0 0 0.0
0.0338756 -1.13361e-05 0.0
0.0999945 -7.81424e-05 0.0
0.0695469 -4.66146e-05 0.0
0.20626 -0.000198708 0.0
0.222404 -0.000231554 0.0
0.189974 -0.00020642 0.0
0.168253 -0.000166795 0.0
0.143002 -0.000128027 0.0
0.124193 -9.45477e-05 0.0
0.0970828 -6.3562e-05 0.0
0 0 0.0
0.0360198 -1.09907e-05 0.0
0.0673134 -3.76745e-05 0.0
0.130336 -0.000125365 0.0
0.168483 -0.000167579 0.0
0.199473 -0.000218521 0.0
0.218379 -0.00025637 0.0
0.241992 -0.000269974 0.0
0.25 -0.000281795 0.0
0.247989 -0.000278513 0.0
0.229082 -0.000289199 0.0
0.244938 -0.000320536 0.0
0.248741 -0.000295655 0.0
0.234445 -0.000276563 0.0
0 0 0.0
0.0362343 -1.46117e-05 0.0
0.122661 -0.000128392 0.0
0.0712315 -5.51236e-05 0.0
0.208349 -0.000242874 0.0
0.225126 -0.000288921 0.0
0.198047 -0.000252085 0.0
0.177724 -0.000208843 0.0
0.146524 -0.000154116 0.0
0.11913 -0.000107768 0.0
0.0970497 -7.20843e-05 0.0
0 0 0.0
0.0349373 -1.23063e-05 0.0
0.0672758 -4.24127e-05 0.0
0.152303 -0.000175102 0.0
0.178018 -0.000213765 0.0
0.210117 -0.000270321 0.0
0.244858 -0.000320429 0.0
0.24942 -0.000329172 0.0
0.232226 -0.000340004 0.0
0.244197 -0.000364514 0.0
0.249988 -0.000388964 0.0
0.249132 -0.000345819 0.0
0.235912 -0.000331 0.0
0.212964 -0.000329865 0.0
0 0 0.0
0.0371636 -1.72113e-05 0.0
0.141112 -0.000178599 0.0
0.0999601 -0.000108111 0.0
0.0666024 -5.37255e-05 0.0
0.213628 -0.000295305 0.0
0.186606 -0.000257123 0.0
0.165083 -0.000209337 0.0
0.122239 -0.000129172 0.0
0.092864 -7.90487e-05 0.0
0 0 0.0
0.0349073 -1.37413e-05 0.0
0.0642241 -4.50454e-05 0.0
0.165599 -0.000223712 0.0
0.186969 -0.000262866 0.0
0.158126 -0.000233987 0.0
0.247091 -0.000374268 0.0
0.248691 -0.000429933 0.0
0.231053 -0.000381629 0.0
0.240526 -0.000407224 0.0
0.248758 -0.000429597 0.0
0.240202 -0.000380615 0.0
0.229255 -0.000373881 0.0
0.199183 -0.000322882 0.0
0.218635 -0.000385739 0.0
0 0 0.0
0.0346516 -1.68895e-05 0.0
0.126172 -0.000173549 0.0
0.0681814 -6.06968e-05 0.0
0.0988227 -0.000117708 0.0
0.208081 -0.000337501 0.0
0.189758 -0.00029437 0.0
0.168124 -0.000244453 0.0
0.140617 -0.000177292 0.0
0.0954064 -9.39986e-05 0.0
0 0 0.0
0.0332509 -1.40648e-05 0.0
0.0660529 -5.36274e-05 0.0
0.183225 -0.000305041 0.0
0.159265 -0.00026176 0.0
0.244898 -0.000443145 0.0
0.24966 -0.00048628 0.0
0.235962 -0.000446284 0.0
0.244859 -0.000471649 0.0
0.249378 -0.000485181 0.0
0.238619 -0.000448589 0.0
0.218419 -0.000405484 0.0
0.203106 -0.000376465 0.0
0.223372 -0.000440814 0.0
0 0 0.0
0.0478093 -3.36803e-05 0.0
0.127924 -0.000197791 0.0
0.0904275 -0.000110562 0.0
0.202606 -0.000362594 0.0
0.177964 -0.000298397 0.0
0.147885 -0.000224191 0.0
0.118717 -0.000147233 0.0
0.0780236 -7.89796e-05 0.0
0 0 0.0
0.0342286 -1.65716e-05 0.0
0.187834 -0.000360944 0.0
0.160404 -0.000291156 0.0
0.246451 -0.000506032 0.0
0.25 -0.000545106 0.0
0.24014 -0.000514907 0.0
0.247577 -0.000567395 0.0
0.239859 -0.000514266 0.0
0.227291 -0.000476184 0.0
0.209727 -0.000423774 0.0
0.227725 -0.000500038 0.0
0.210292 -0.000441756 0.0
0 0 0.0
0.0478733 -3.75824e-05 0.0
0.128019 -0.000220733 0.0
0.0905101 -0.000121557 0.0
0.187168 -0.000358917 0.0
0.159615 -0.000281614 0.0
0.0471945 -3.3067e-05 0.0
0.12708 -0.000195146 0.0
0.0895853 -0.000108355 0.0
0 0 0.0
0.18791 -0.000405451 0.0
0.160494 -0.000325773 0.0
0.247419 -0.000573662 0.0
0.249999 -0.000613798 0.0
0.240173 -0.000580241 0.0
0.247594 -0.000637594 0.0
0.227244 -0.000535749 0.0
0.239826 -0.000578683 0.0
0.187092 -0.000402939 0.0
0.209665 -0.000476455 0.0
0.227766 -0.000548726 0.0
0.210357 -0.00049641 0.0
0 0 0.0
0.0479437 -4.11859e-05 0.0
0.128126 -0.00024538 0.0
0.090622 -0.000136299 0.0
0.126985 -0.000218644 0.0
0.159528 -0.000315833 0.0
0.0471346 -3.6678e-05 0.0
0.089495 -0.000120426 0.0
0 0 0.0
0.187997 -0.000452709 0.0
0.160596 -0.000363112 0.0
0.247402 -0.000643472 0.0
0.249998 -0.000687338 0.0
0.22781 -0.000601814 0.0
0.240224 -0.000678355 0.0
0.247613 -0.000713439 0.0
0.227198 -0.000586185 0.0
0.239789 -0.000647847 0.0
0.187028 -0.00043679 0.0
0.209593 -0.000532718 0.0
0.21043 -0.000554886 0.0
0 0 0.0
0.0480265 -4.57744e-05 0.0
0.128264 -0.000275956 0.0
0.0907361 -0.000150496 0.0
0.126896 -0.000238799 0.0
0.159429 -0.000351592 0.0
0.0470618 -4.07649e-05 0.0
0.0893951 -0.000132982 0.0
0 0 0.0
0.16071 -0.000402818 0.0
0.18812 -0.000516158 0.0
0.247381 -0.000718345 0.0
0.249998 -0.000766375 0.0
0.240258 -0.00074087 0.0
0.227894 -0.000696161 0.0
0.247634 -0.00079399 0.0
0.239747 -0.000721533 0.0
0.22715 -0.000641299 0.0
0.186935 -0.000485652 0.0
0.209514 -0.000592504 0.0
0.210513 -0.000618358 0.0
0 0 0.0
0.0481097 -5.04894e-05 0.0
0.128378 -0.000300872 0.0
0.0908619 -0.000165931 0.0
0.126781 -0.000264339 0.0
0.159319 -0.000390325 0.0
0 0 0.0
0.0892834 -0.00014722 0.0
0.0469883 -4.48422e-05 0.0
0.188231 -0.00057449 0.0
0.160837 -0.000446588 0.0
0.227952 -0.000759479 0.0
0.247359 -0.00079963 0.0
0.249996 -0.00085218 0.0
0.247652 -0.000862165 0.0
0.240295 -0.000806413 0.0
0.239701 -0.000801435 0.0
0.227084 -0.000712689 0.0
0.186802 -0.000551606 0.0
0.209425 -0.000657957 0.0
0.210605 -0.000686427 0.0
0 0 0.0
0.0482041 -5.55407e-05 0.0
0.0909867 -0.000180596 0.0
0.128525 -0.000331812 0.0
0.126632 -0.000296379 0.0
0.159197 -0.000432106 0.0
0 0 0.0
0.0469002 -4.94355e-05 0.0
0.089174 -0.000160458 0.0
0.188325 -0.000620073 0.0
0.160979 -0.000494366 0.0
0.228014 -0.000827762 0.0
0.240366 -0.000932705 0.0
0.247333 -0.000887887 0.0
0.249995 -0.000944815 0.0
0.247672 -0.000934111 0.0
0.239648 -0.000887919 0.0
0.227011 -0.000790137 0.0
0.186713 -0.000595338 0.0
0.209326 -0.000727635 0.0
0.210709 -0.000761572 0.0
0 0 0.0
0.048309 -6.07872e-05 0.0
0.128715 -0.000372149 0.0
0.0911552 -0.000201242 0.0
0.126509 -0.000322613 0.0
0.15906 -0.000477491 0.0
0.0468119 -5.38934e-05 0.0
0 0 0.0
0.0890265 -0.000178631 0.0
0.161137 -0.000546662 0.0
0.188494 -0.000703195 0.0
0.228131 -0.000950669 0.0
0.240425 -0.00103549 0.0
0.247697 -0.0010359 0.0
0.247289 -0.00102684 0.0
0.249993 -0.00104773 0.0
0.23959 -0.000984032 0.0
0.226898 -0.000902997 0.0
0.186551 -0.00067314 0.0
0.209216 -0.000804673 0.0
0.210823 -0.000843591 0.0
0 0 0.0
0.0484227 -6.62549e-05 0.0
0.0913242 -0.00021995 0.0
0.161312 -0.000602385 0.0
0.128871 -0.000403363 0.0
0.126352 -0.000356059 0.0
0.158941 -0.00051675 0.0
0.0467087 -5.99221e-05 0.0
0 0 0.0
0.0888912 -0.000195618 0.0
0.21093 -0.000920338 0.0
0.188611 -0.000760419 0.0
0.240476 -0.00112292 0.0
0.228227 -0.00105638 0.0
0.247741 -0.00119779 0.0
0.24999 -0.00115856 0.0
0.247262 -0.00110977 0.0
0.239524 -0.00108639 0.0
0.22682 -0.0009793 0.0
0.186441 -0.000724483 0.0
0.158744 -0.000581665 0.0
0.209094 -0.000886737 0.0
0 0 0.0
0.0914936 -0.000239638 0.0
0.0485563 -7.30984e-05 0.0
0.161468 -0.000654129 0.0
0.129103 -0.000452646 0.0
0.126179 -0.000393464 0.0
0 0 0.0
0.0465949 -6.64444e-05 0.0
0.0887107 -0.0002186 0.0
0.211048 -0.00100279 0.0
0.188822 -0.000865855 0.0
0.24053 -0.00121759 0.0
0.228334 -0.00117204 0.0
0.247764 -0.0012984 0.0
0.249984 -0.00128135 0.0
0.247233 -0.00120101 0.0
0.158599 -0.00062643 0.0
0.208981 -0.000961881 0.0
0.23945 -0.00119682 0.0
0.226735 -0.00106203 0.0
0.186285 -0.00079854 0.0
0 0 0.0
0.0486869 -7.91475e-05 0.0
0.0916966 -0.000262555 0.0
0.161682 -0.000723161 0.0
0.129333 -0.000499887 0.0
0.0885274 -0.000241449 0.0
0.125958 -0.00044089 0.0
0 0 0.0
0.0464628 -7.43331e-05 0.0
0.2112 -0.00111225 0.0
0.189016 -0.000961491 0.0
0.240604 -0.00134879 0.0
0.228451 -0.00130128 0.0
0.247791 -0.00140655 0.0
0.249978 -0.00141721 0.0
0.247168 -0.0013821 0.0
0.158405 -0.000689063 0.0
0.239368 -0.00131932 0.0
0.208858 -0.00103994 0.0
0.226582 -0.00120961 0.0
0.186067 -0.000901743 0.0
0 0 0.0
0.0919468 -0.00029184 0.0
0.0488364 -8.64989e-05 0.0
0.161971 -0.000818379 0.0
0.129587 -0.000553343 0.0
0.0883475 -0.000264837 0.0
0.125746 -0.000487752 0.0
0 0 0.0
0.0463211 -8.29998e-05 0.0
0.18923 -0.00107074 0.0
0.211369 -0.00123666 0.0
0.240684 -0.00149763 0.0
0.247826 -0.00155443 0.0
0.22858 -0.00144553 0.0
0.249967 -0.00156318 0.0
0.247116 -0.00152712 0.0
0.239275 -0.00144978 0.0
0.249527 -0.00168434 0.0
0.15819 -0.000756626 0.0
0.226451 -0.00132966 0.0
0.208648 -0.00117334 0.0
0.185922 -0.000966587 0.0
0 0 0.0
0.0921776 -0.000319976 0.0
0.0490126 -9.58623e-05 0.0
0.162189 -0.000893286 0.0
0.129871 -0.000615034 0.0
0.0881289 -0.000293003 0.0
0.125549 -0.000529995 0.0
0 0 0.0
0.0461733 -9.21295e-05 0.0
0.18947 -0.00119436 0.0
0.211556 -0.00137797 0.0
0.240765 -0.00165996 0.0
0.228722 -0.00161111 0.0
0.247873 -0.00180434 0.0
0.249135 -0.00167044 0.0
0.243752 -0.00160889 0.0
0.233386 -0.00150199 0.0
0.249941 -0.00181669 0.0
0.157958 -0.000828331 0.0
0.218038 -0.00135561 0.0
0.203248 -0.00122598 0.0
0.185662 -0.00107985 0.0
0 0 0.0
0.0924578 -0.000356399 0.0
0.0491955 -0.000105255 0.0
0.162488 -0.00100008 0.0
0.130191 -0.000688615 0.0
0.125261 -0.000590251 0.0
0.0878883 -0.000323645 0.0
0 0 0.0
0.0459931 -0.000102134 0.0
0.189738 -0.00133809 0.0
0.211763 -0.00153952 0.0
0.247901 -0.00199748 0.0
0.228874 -0.00179688 0.0
0.240859 -0.00184651 0.0
0.247014 -0.00177601 0.0
0.239099 -0.00168433 0.0
0.226201 -0.00154644 0.0
0.249911 -0.00200615 0.0
0.157704 -0.000904351 0.0
0.20833 -0.00136555 0.0
0.185428 -0.00117721 0.0
0 0 0.0
0.0493913 -0.000116645 0.0
0.0927738 -0.000401678 0.0
0.130495 -0.000762021 0.0
0.190034 -0.0015029 0.0
0.162825 -0.00112579 0.0
0.124987 -0.000644449 0.0
0.0876251 -0.00035571 0.0
0.0458006 -0.000113143 0.0
0 0 0.0
0.22901 -0.00197112 0.0
0.211991 -0.00172766 0.0
0.247924 -0.00216664 0.0
0.24095 -0.0020588 0.0
0.226025 -0.00168762 0.0
0.246929 -0.00195325 0.0
0.238963 -0.00184575 0.0
0.249874 -0.00221538 0.0
0.185177 -0.00127479 0.0
0.157374 -0.000993387 0.0
0.208045 -0.00152274 0.0
0 0 0.0
0.0496228 -0.000133381 0.0
0.0931728 -0.000462279 0.0
0.130894 -0.000864907 0.0
0.190277 -0.0016506 0.0
0.163282 -0.00131397 0.0
0.124692 -0.000697348 0.0
0.0873128 -0.000390071 0.0
0.0455924 -0.000123539 0.0
0 0 0.0
0.124374 -0.000748828 0.0
0.229152 -0.00215782 0.0
0.212318 -0.00202013 0.0
0.241083 -0.00240349 0.0
0.24794 -0.00234718 0.0
0.225751 -0.0018904 0.0
0.238812 -0.00201727 0.0
0.24683 -0.00214868 0.0
0.249815 -0.00244732 0.0
0.184901 -0.00137318 0.0
0.157071 -0.0010703 0.0
0.207798 -0.00165084 0.0
0 0 0.0
0.0498874 -0.000152421 0.0
0.0935912 -0.000532444 0.0
0.131347 -0.000992347 0.0
0.190635 -0.00186928 0.0
0.163718 -0.00150325 0.0
0.0453616 -0.0001356 0.0
0.087001 -0.000421591 0.0
0 0 0.0
0.124088 -0.000785426 0.0
0.229334 -0.00242792 0.0
0.212598 -0.00228504 0.0
0.241176 -0.00268645 0.0
0.247949 -0.00261154 0.0
0.225552 -0.0020239 0.0
0.238636 -0.00220147 0.0
0.249741 -0.00270472 0.0
0.246648 -0.00246221 0.0
0.184674 -0.00144304 0.0
0.156743 -0.00113937 0.0
0.207523 -0.00177627 0.0
0 0 0.0
0.0501915 -0.000176931 0.0
0.0940731 -0.000617342 0.0
0.131944 -0.00117061 0.0
0.191129 -0.00220055 0.0
0.212899 -0.00259503 0.0
0.164204 -0.00173091 0.0
0.0451313 -0.000144397 0.0
0.0866738 -0.000448476 0.0
0 0 0.0
0.123733 -0.000823161 0.0
0.22959 -0.00284488 0.0
0.241246 -0.0029457 0.0
0.247945 -0.00290665 0.0
0.249664 -0.00291892 0.0
0.225337 -0.00215598 0.0
0.23842 -0.00240375 0.0
0.246482 -0.00270168 0.0
0.156391 -0.00120049 0.0
0.184347 -0.00153518 0.0
0.20721 -0.00190247 0.0
0 0 0.0
0.0505719 -0.000208962 0.0
0.0946378 -0.000726013 0.0
0.132549 -0.00136628 0.0
0.191461 -0.00244058 0.0
0.213217 -0.00294574 0.0
0.164752 -0.00200052 0.0
0.0448739 -0.000152608 0.0
0.0863308 -0.000469837 0.0
0 0 0.0
0.156089 -0.00123483 0.0
0.0859811 -0.000481515 0.0
0.123302 -0.000852493 0.0
0.229786 -0.00322909 0.0
0.241306 -0.0032195 0.0
0.2479 -0.0033976 0.0
0.249574 -0.00314365 0.0
0.246333 -0.00290577 0.0
0.225037 -0.00232242 0.0
0.238066 -0.00270498 0.0
0.183887 -0.00163674 0.0
0.206914 -0.00201349 0.0
0.229954 -0.0035676 0.0
0 0 0.0
0.0509971 -0.000246867 0.0
0.133245 -0.00160195 0.0
0.0952953 -0.00085858 0.0
0.213562 -0.00336406 0.0
0.192059 -0.0029016 0.0
0.165364 -0.00231958 0.0
0.0445963 -0.000156763 0.0
0 0 0.0
0.183576 -0.00169436 0.0
0.155684 -0.0012728 0.0
0.12291 -0.000868385 0.0
0.0443158 -0.000164021 0.0
0.0856222 -0.000487993 0.0
0.241377 -0.00361564 0.0
0.247848 -0.00369967 0.0
0.249413 -0.00347666 0.0
0.249266 -0.00375514 0.0
0.24615 -0.00311909 0.0
0.224682 -0.00249935 0.0
0.237738 -0.00293951 0.0
0.206579 -0.00211146 0.0
0.230105 -0.00394848 0.0
0.0514773 -0.000291454 0.0
0 0 0.0
0.133915 -0.00183263 0.0
0.0960622 -0.00101271 0.0
0.213921 -0.00383984 0.0
0.192453 -0.00322854 0.0
0.166055 -0.00269643 0.0
0 0 0.0
0.18313 -0.00175295 0.0
0.155159 -0.00129585 0.0
0.122572 -0.000862174 0.0
0.0440559 -0.000164975 0.0
0.0852647 -0.000486571 0.0
0.24143 -0.00426267 0.0
0.24778 -0.0040197 0.0
0.249082 -0.00404687 0.0
0.245738 -0.00355347 0.0
0.224278 -0.0026756 0.0
0.237367 -0.00318615 0.0
0.205998 -0.00226665 0.0
0.230302 -0.00447775 0.0
0 0 0.0
0.0520711 -0.000348256 0.0
0.13481 -0.0021502 0.0
0.0968741 -0.00117943 0.0
0.166827 -0.0031289 0.0
0.214298 -0.00439083 0.0
0.193173 -0.00384705 0.0
0 0 0.0
0 0 0.0
0.182622 -0.00180601 0.0
0.154685 -0.00130298 0.0
0.122166 -0.000850703 0.0
0.0849175 -0.000478077 0.0
0.0437849 -0.000163339 0.0
0.241434 -0.00479411 0.0
0.247641 -0.0044888 0.0
0.237011 -0.00339856 0.0
0.248792 -0.00447589 0.0
0.24536 -0.00389909 0.0
0.223798 -0.00286331 0.0
0.205464 -0.00237971 0.0
0.241408 -0.00527472 0.0
0.230467 -0.00507768 0.0
0.0527747 -0.000412934 0.0
0.0979134 -0.00138744 0.0
0.135842 -0.00252295 0.0
0.167519 -0.00353431 0.0
0.214696 -0.00501181 0.0
0.193637 -0.00429108 0.0
0 0 0.0
0 0 0.0
0.154283 -0.00129195 0.0
0.181918 -0.00185069 0.0
0.084616 -0.0004607 0.0
0.121691 -0.000823239 0.0
0.0435116 -0.000161741 0.0
0.247359 -0.00524312 0.0
0.248416 -0.00495686 0.0
0.204867 -0.00248948 0.0
0.236605 -0.00361548 0.0
0.245025 -0.00418947 0.0
0.223032 -0.0031227 0.0
0.241358 -0.0057769 0.0
0.230688 -0.00600941 0.0
0.2151 -0.00572226 0.0
0.0536568 -0.000494093 0.0
0.0991261 -0.00163972 0.0
0.137219 -0.00301858 0.0
0.168477 -0.00409081 0.0
0.19449 -0.00511591 0.0
0 0 0.0
0 0 0.0
0.153645 -0.00127063 0.0
0.181273 -0.00188777 0.0
0.0842737 -0.000436061 0.0
0.121282 -0.000792121 0.0
0.0432493 -0.000156363 0.0
0.244631 -0.00450064 0.0
0.247964 -0.00547499 0.0
0.247059 -0.00586169 0.0
0.204181 -0.00260051 0.0
0.236019 -0.00391416 0.0
0.222346 -0.00334094 0.0
0.18057 -0.0019208 0.0
0.241176 -0.00679373 0.0
0 0 0.0
0.23079 -0.00681882 0.0
0.195237 -0.00588831 0.0
0.21551 -0.00651423 0.0
0.0546074 -0.000582863 0.0
0.138402 -0.0034526 0.0
0.100699 -0.00196997 0.0
0.169772 -0.00489103 0.0
0 0 0.0
0 0 0.0
0 0 0.0
0 0 0.0
0 0 0.0
0.0430241 -0.000149702 0.0
0.120878 -0.000759364 0.0
0.153073 -0.00125361 0.0
0.0839938 -0.000418792 0.0
0.244037 -0.00492089 0.0
0.247404 -0.00605477 0.0
0.246698 -0.00653999 0.0
0.221706 -0.00351104 0.0
0.203397 -0.00271659 0.0
0.235019 -0.00436862 0.0
0.202659 -0.00281902 0.0
0.179985 -0.00194451 0.0
0.240949 -0.0076346 0.0
0.230871 -0.00769917 0.0
0 0 0.0
9.45187e-05 -3.79349e-05 0.0
0 0 0.0
-0.000359514 0.00210421 0.0
0.215936 -0.00741923 0.0
0.195848 -0.00652382 0.0
0.05584 -0.000701842 0.0
0.139958 -0.0040209 0.0
0.102373 -0.00232293 0.0
0.171013 -0.00566426 0.0
0 0 0.0
0 0 0.0
0 0 0.0
-0.000268528 0.00114642 0.0
-2.60925e-05 -0.000104065 0.0
2.70594e-05 -4.64071e-05 0.0
0 0 0.0
0.0427864 -0.000146136 0.0
0.120533 -0.000731254 0.0
0.152469 -0.00123983 0.0
0.0836827 -0.000399968 0.0
0.243336 -0.00539288 0.0
0.246734 -0.00668987 0.0
0.246232 -0.00728446 0.0
0.220987 -0.00370534 0.0
0.23434 -0.0046675 0.0
0.201843 -0.0029253 0.0
0.178941 -0.00200033 0.0
0.240659 -0.00855154 0.0
0.233798 -0.00861497 0.0
0.224203 -0.00845902 0.0
0 0 0.0
0.000123037 6.92268e-06 0.0
0 0 0.0
0 0 0.0
-0.00127266 0.00473388 0.0
-0.00122959 0.00311533 0.0
0.211847 -0.00811312 0.0
0.196702 -0.00747541 0.0
0.10412 -0.00269739 0.0
0.0571666 -0.000841787 0.0
0.141727 -0.00468952 0.0
0.172376 -0.00654592 0.0
0 0 0.0
-0.000441899 0.000568131 0.0
-0.000837139 0.00161209 0.0
-0.000276823 0.000216716 0.0
-0.000241069 0.000227358 0.0
0 0 0.0
0.0425599 -0.000143614 0.0
0.120132 -0.000708466 0.0
0.151839 -0.00122806 0.0
0.0834086 -0.000388629 0.0
0.242507 -0.00590449 0.0
0.245941 -0.00738041 0.0
0.245657 -0.00810186 0.0
0.219637 -0.00405272 0.0
0.23358 -0.00497073 0.0
0.200775 -0.00307955 0.0
0.151184 -0.0012474 0.0
0.178013 -0.00207114 0.0
0.240352 -0.00934448 0.0
0.230885 -0.00940105 0.0
0.216638 -0.00923317 0.0
0 0 0.0
-0.000144746 0.000134257 0.0
0 0 0.0
0 0 0.0
0 0 0.0
0 0 0.0
-0.00222613 0.00331693 0.0
-0.000353755 0.00406931 0.0
-0.00129677 0.00612877 0.0
-0.00301983 0.00803522 0.0
-0.00255713 0.00550413 0.0
0 0 0.0
-6.04082e-05 0.00602429 0.0
0.197838 -0.00887124 0.0
0.173575 -0.00737219 0.0
0 0 0.0
0.0589153 -0.00103757 0.0
0.106349 -0.0032064 0.0
0.144066 -0.00565531 0.0
0 0 0.0
0 0 0.0
-0.00134591 0.00160405 0.0
-0.00103177 0.000913176 0.0