# vtk DataFile Version 3.0
Mesh NS-CD Problem
ASCII
DATASET UNSTRUCTURED_GRID
POINTS 10839 float
-2 0.3 0.0
-2 0.4 0.0
-2 0.35 0.0
-2 0.45 0.0
-2 0.5 0.0
-2 0.55 0.0
-2 0 0.0
-2 0.05 0.0
-2 0.85 0.0
-2 0.9 0.0
-2 0.1 0.0
-2 0.15 0.0
-2 0.25 0.0
-2 0.2 0.0
-1.96653 0.266667 0.0
-1.96524 0.415385 0.0
-1.96485 0.315 0.0
-1.96348 0.363636 0.0
-1.96414 0.464286 0.0
-2 0.6 0.0
-1.96538 0.584615 0.0
-1.96538 0.538462 0.0
-1.94979 0 0.0
-1.96653 0.0666666 0.0
-1.93306 0.0333333 0.0
-2 0.8 0.0
-2 0.75 0.0
-2 0.7 0.0
-2 0.65 0.0
-1.96249 0.7375 0.0
-1.96666 0.833333 0.0
-2 1 0.0
-2 0.95 0.0
-1.96249 0.8875 0.0
-1.96666 0.933333 0.0
-1.96234 0.1125 0.0
-1.96653 0.166667 0.0
-1.93724 0.225 0.0
-1.92971 0.28 0.0
-1.93048 0.380769 0.0
-1.93048 0.423077 0.0
-1.89958 0.3375 0.0
-1.9292 0.484203 0.0
-1.92117 0.530907 0.0
-1.96363 0.636364 0.0
-1.93076 0.576923 0.0
-1.89958 0 0.0
-1.88703 0.0375 0.0
-1.90963 0.08 0.0
-1.86611 0.0666666 0.0
-1.93749 0.775 0.0
-1.93635 0.672727 0.0
-1.92999 0.72 0.0
-1.93332 0.866667 0.0
-1.92856 0.821429 0.0
-1.94999 1 0.0
-1.92499 0.9625 0.0
-1.92499 0.925 0.0
-1.89998 0.9 0.0
-1.89958 0.125 0.0
-1.92827 0.178571 0.0
-1.89958 0.233333 0.0
-1.89045 0.290909 0.0
-1.86096 0.311538 0.0
-1.89241 0.392857 0.0
-1.89334 0.448489 0.0
-1.85655 0.357143 0.0
-1.89614 0.653846 0.0
-1.89427 0.504121 0.0
-1.8952 0.559753 0.0
-1.89614 0.615385 0.0
-1.84937 0 0.0
-1.83264 0.0333333 0.0
-1.85655 0.107143 0.0
-1.81172 0.075 0.0
-1.89998 0.766667 0.0
-1.89089 0.709091 0.0
-1.87498 0.85 0.0
-1.85998 0.79 0.0
-1.88748 0.8125 0.0
-1.89998 1 0.0
-1.88748 0.9625 0.0
-1.86664 0.933333 0.0
-1.85712 0.892857 0.0
-1.87448 0.15 0.0
-1.86611 0.194444 0.0
-1.83264 0.133333 0.0
-1.83264 0.2625 0.0
-1.82068 0.321429 0.0
-1.85664 0.404762 0.0
-1.85674 0.452381 0.0
-1.85683 0.5 0.0
-1.81184 0.375 0.0
-1.85712 0.642857 0.0
-1.85693 0.547619 0.0
-1.85702 0.595238 0.0
-1.79917 0 0.0
-1.78482 0.0357143 0.0
-1.79917 0.116667 0.0
-1.76569 0.0666666 0.0
-1.85452 0.745455 0.0
-1.82689 0.692308 0.0
-1.81815 0.781818 0.0
-1.82497 0.825 0.0
-1.84997 1 0.0
-1.8333 0.958333 0.0
-1.81247 0.8875 0.0
-1.81247 0.925 0.0
-1.81742 0.218182 0.0
-1.82427 0.175 0.0
-1.77634 0.145455 0.0
-1.79144 0.242308 0.0
-1.78482 0.285714 0.0
-1.77469 0.332653 0.0
-1.81215 0.529762 0.0
-1.81194 0.422619 0.0
-1.81203 0.470238 0.0
-1.76714 0.392857 0.0
-1.81234 0.625 0.0
-1.79732 0.571429 0.0
-1.74896 0 0.0
-1.73222 0.0333333 0.0
-1.75398 0.105 0.0
-1.71883 0.07 0.0
-1.79227 0.730769 0.0
-1.78007 0.679121 0.0
-1.75765 0.769231 0.0
-1.78178 0.818182 0.0
-1.78996 0.86 0.0
-1.79996 1 0.0
-1.78568 0.964286 0.0
-1.76663 0.922222 0.0
-1.76569 0.1875 0.0
-1.73222 0.15 0.0
-1.74896 0.25 0.0
-1.73714 0.304762 0.0
-1.76743 0.537202 0.0
-1.72869 0.343878 0.0
-1.76732 0.485119 0.0
-1.76723 0.440476 0.0
-1.72243 0.410714 0.0
-1.76757 0.607143 0.0
-1.69875 0 0.0
-1.68369 0.035 0.0
-1.69875 0.1125 0.0
-1.66528 0.075 0.0
-1.74341 0.708974 0.0
-1.73324 0.665934 0.0
-1.70441 0.74478 0.0
-1.71423 0.785714 0.0
-1.72303 0.826923 0.0
-1.74541 0.854545 0.0
-1.74541 0.890909 0.0
-1.74996 1 0.0
-1.73745 0.9625 0.0
-1.71359 0.927273 0.0
-1.68716 0.153846 0.0
-1.7131 0.214286 0.0
-1.70725 0.275 0.0
-1.69712 0.321939 0.0
-1.72279 0.589286 0.0
-1.72261 0.5 0.0
-1.7227 0.544643 0.0
-1.6827 0.355102 0.0
-1.67773 0.428571 0.0
-1.70763 0.464286 0.0
-1.70369 0.62449 0.0
-1.64854 0 0.0
-1.63181 0.0375 0.0
-1.64137 0.142857 0.0
-1.61764 0.0769231 0.0
-1.69458 0.703846 0.0
-1.67471 0.657437 0.0
-1.66143 0.727637 0.0
-1.67125 0.768571 0.0
-1.67851 0.821429 0.0
-1.68841 0.861538 0.0
-1.70904 0.890909 0.0
-1.69995 1 0.0
-1.68176 0.963636 0.0
-1.67267 0.927273 0.0
-1.65427 0.187143 0.0
-1.66718 0.231429 0.0
-1.66554 0.3 0.0
-1.67802 0.571429 0.0
-1.67792 0.523809 0.0
-1.6367 0.366327 0.0
-1.63682 0.423469 0.0
-1.62568 0.502976 0.0
-1.6629 0.470238 0.0
-1.65254 0.618367 0.0
-1.6059 0.307143 0.0
-1.59833 0 0.0
-1.58288 0.0384615 0.0
-1.60563 0.169643 0.0
-1.58179 0.112271 0.0
-1.56964 0.0714286 0.0
-1.64574 0.690385 0.0
-1.62827 0.751429 0.0
-1.63371 0.791071 0.0
-1.64279 0.857143 0.0
-1.65378 0.896154 0.0
-1.64994 1 0.0
-1.6363 0.963636 0.0
-1.61916 0.930769 0.0
-1.61345 0.209107 0.0
-1.62126 0.248571 0.0
-1.56989 0.196429 0.0
-1.63324 0.553571 0.0
-1.58846 0.535714 0.0
-1.59408 0.361905 0.0
-1.59161 0.402211 0.0
-1.58832 0.464286 0.0
-1.61504 0.598581 0.0
-1.59683 0.64359 0.0
-1.57899 0.274107 0.0
-1.56176 0.322381 0.0
-1.54812 0 0.0
-1.53378 0.0357143 0.0
-1.54593 0.147619 0.0
-1.53385 0.0732143 0.0
-1.53393 0.110714 0.0
-1.58522 0.704286 0.0
-1.58709 0.745 0.0
-1.58896 0.785714 0.0
-1.60695 0.830357 0.0
-1.60707 0.892857 0.0
-1.59993 1 0.0
-1.58454 0.965385 0.0
-1.57135 0.928571 0.0
-1.55209 0.241071 0.0
-1.5291 0.198214 0.0
-1.56936 0.570918 0.0
-1.54369 0.517857 0.0
-1.5464 0.380952 0.0
-1.54564 0.427721 0.0
-1.54488 0.47449 0.0
-1.55026 0.606122 0.0
-1.54222 0.677143 0.0
-1.52943 0.282857 0.0
-1.52143 0.33619 0.0
-1.49792 0 0.0
-1.49802 0.05 0.0
-1.49822 0.15 0.0
-1.49312 0.1 0.0
-1.5423 0.717143 0.0
-1.54419 0.767857 0.0
-1.54727 0.819048 0.0
-1.57122 0.861905 0.0
-1.53553 0.914286 0.0
-1.54992 1 0.0
-1.53563 0.964286 0.0
-1.49842 0.25 0.0
-1.48831 0.2 0.0
-1.5214 0.558929 0.0
-1.49891 0.5 0.0
-1.49871 0.4 0.0
-1.47631 0.45 0.0
-1.49911 0.6 0.0
-1.49921 0.65 0.0
-1.49931 0.7 0.0
-1.48111 0.35 0.0
-1.48351 0.3 0.0
-1.44771 0 0.0
-1.44782 0.05 0.0
-1.44804 0.15 0.0
-1.44793 0.1 0.0
-1.49941 0.75 0.0
-1.49951 0.8 0.0
-1.49981 0.95 0.0
-1.49961 0.85 0.0
-1.49971 0.9 0.0
-1.49991 1 0.0
-1.44826 0.25 0.0
-1.43815 0.2 0.0
-1.47151 0.55 0.0
-1.44881 0.5 0.0
-1.44859 0.4 0.0
-1.42619 0.45 0.0
-1.44913 0.65 0.0
-1.44902 0.6 0.0
-1.44935 0.75 0.0
-1.44924 0.7 0.0
-1.43972 0.35 0.0
-1.43336 0.3 0.0
-1.3975 0 0.0
-1.39762 0.05 0.0
-1.39786 0.15 0.0
-1.39274 0.1 0.0
-1.44957 0.85 0.0
-1.44946 0.8 0.0
-1.4523 0.95 0.0
-1.44968 0.9 0.0
-1.4499 1 0.0
-1.3981 0.25 0.0
-1.38798 0.2 0.0
-1.42141 0.55 0.0
-1.3987 0.5 0.0
-1.39834 0.35 0.0
-1.37845 0.4 0.0
-1.37607 0.45 0.0
-1.40784 0.65 0.0
-1.39894 0.6 0.0
-1.41185 0.75 0.0
-1.39918 0.7 0.0
-1.38322 0.3 0.0
-1.34729 0 0.0
-1.34492 0.05 0.0
-1.34018 0.15 0.0
-1.34255 0.1 0.0
-1.40707 0.85 0.0
-1.39941 0.8 0.0
-1.39977 0.95 0.0
-1.39965 0.9 0.0
-1.39989 1 0.0
-1.33781 0.2 0.0
-1.33544 0.25 0.0
-1.37131 0.55 0.0
-1.34859 0.5 0.0
-1.33833 0.4 0.0
-1.3307 0.35 0.0
-1.32595 0.45 0.0
-1.34885 0.6 0.0
-1.36655 0.65 0.0
-1.36179 0.75 0.0
-1.34911 0.7 0.0
-1.33307 0.3 0.0
-1.29708 0 0.0
-1.29722 0.05 0.0
-1.2975 0.15 0.0
-1.29236 0.1 0.0
-1.35703 0.85 0.0
-1.34937 0.8 0.0
-1.34988 1 0.0
-1.34962 0.9 0.0
-1.35226 0.95 0.0
-1.28528 0.25 0.0
-1.28764 0.2 0.0
-1.28931 0.35 0.0
-1.32121 0.55 0.0
-1.29848 0.5 0.0
-1.28709 0.45 0.0
-1.2982 0.4 0.0
-1.29876 0.6 0.0
-1.31647 0.65 0.0
-1.29918 0.75 0.0
-1.29904 0.7 0.0
-1.28292 0.3 0.0
-1.24687 0 0.0
-1.24702 0.05 0.0
-1.24717 0.1 0.0
-1.24732 0.15 0.0
-1.29946 0.85 0.0
-1.29932 0.8 0.0
-1.29987 1 0.0
-1.29974 0.95 0.0
-1.30462 0.9 0.0
-1.24762 0.25 0.0
-1.23747 0.2 0.0
-1.24792 0.35 0.0
-1.22807 0.4 0.0
-1.27111 0.55 0.0
-1.24837 0.5 0.0
-1.24822 0.45 0.0
-1.24867 0.6 0.0
-1.26639 0.65 0.0
-1.26167 0.75 0.0
-1.24897 0.7 0.0
-1.23277 0.3 0.0
-1.19667 0 0.0
-1.19683 0.05 0.0
-1.18964 0.15 0.0
-1.19198 0.1 0.0
-1.25695 0.85 0.0
-1.24927 0.8 0.0
-1.25223 0.95 0.0
-1.24987 1 0.0
-1.24957 0.9 0.0
-1.1873 0.2 0.0
-1.18496 0.25 0.0
-1.18028 0.35 0.0
-1.17794 0.4 0.0
-1.1981 0.45 0.0
-1.19842 0.55 0.0
-1.19826 0.5 0.0
-1.19858 0.6 0.0
-1.19874 0.65 0.0
-1.19906 0.75 0.0
-1.1989 0.7 0.0
-1.18262 0.3 0.0
-1.14646 0 0.0
-1.14663 0.05 0.0
-1.1418 0.1 0.0
-1.13713 0.2 0.0
-1.14697 0.15 0.0
-1.20691 0.85 0.0
-1.20926 0.8 0.0
-1.20221 0.95 0.0
-1.19986 1 0.0
-1.20456 0.9 0.0
-1.13997 0.3 0.0
-1.14731 0.25 0.0
-1.13781 0.4 0.0
-1.13014 0.35 0.0
-1.12548 0.45 0.0
-1.14815 0.5 0.0
-1.15962 0.55 0.0
-1.14849 0.6 0.0
-1.15745 0.65 0.0
-1.16155 0.75 0.0
-1.14917 0.8 0.0
-1.14883 0.7 0.0
-1.09625 0 0.0
-1.09661 0.1 0.0
-1.09393 0.05 0.0
-1.09697 0.2 0.0
-1.08929 0.15 0.0
-1.15687 0.85 0.0
-1.14985 1 0.0
-1.15219 0.95 0.0
-1.14951 0.9 0.0
-1.09733 0.3 0.0
-1.08465 0.25 0.0
-1.09769 0.4 0.0
-1.08 0.35 0.0
-1.08661 0.45 0.0
-1.09804 0.5 0.0
-1.12082 0.55 0.0
-1.10916 0.8 0.0
-1.10629 0.7 0.0
-1.0984 0.6 0.0
-1.11616 0.65 0.0
-1.11149 0.75 0.0
-1.04604 0 0.0
-1.04623 0.05 0.0
-1.04642 0.1 0.0
-1.0468 0.2 0.0
-1.03911 0.15 0.0
-1.09948 0.9 0.0
-1.0993 0.85 0.0
-1.09984 1 0.0
-1.09966 0.95 0.0
-1.04718 0.3 0.0
-1.03449 0.25 0.0
-1.04756 0.4 0.0
-1.02986 0.35 0.0
-1.04775 0.45 0.0
-1.04794 0.5 0.0
-1.04813 0.55 0.0
-1.05911 0.8 0.0
-1.04831 0.6 0.0
-1.06376 0.7 0.0
-1.0485 0.65 0.0
-1.04888 0.75 0.0
-0.995833 0 0.0
-0.991231 0.1 0.0
-0.996033 0.05 0.0
-0.986629 0.2 0.0
-0.98893 0.15 0.0
-1.05447 0.9 0.0
-1.04926 0.85 0.0
-1.04983 1 0.0
-1.04964 0.95 0.0
-0.984328 0.25 0.0
-0.99703 0.3 0.0
-0.997429 0.4 0.0
-0.997628 0.45 0.0
-0.979726 0.35 0.0
-0.997827 0.5 0.0
-0.998027 0.55 0.0
-0.998226 0.6 0.0
-0.961416 0.475 0.0
-1.00907 0.8 0.0
-0.998426 0.65 0.0
-0.998625 0.7 0.0
-1.01138 0.75 0.0
-0.945625 0 0.0
-0.946044 0.1 0.0
-0.943334 0.05 0.0
-0.946463 0.2 0.0
-0.938752 0.15 0.0
-1.00444 0.9 0.0
-1.00675 0.85 0.0
-0.999821 1 0.0
-1.00213 0.95 0.0
-0.93417 0.25 0.0
-0.946881 0.3 0.0
-0.9473 0.4 0.0
-0.929588 0.35 0.0
-0.925005 0.45 0.0
-0.960371 0.525 0.0
-0.959325 0.575 0.0
-0.958279 0.625 0.0
-0.922714 0.5 0.0
-0.959017 0.8 0.0
-0.957233 0.675 0.0
-0.952999 0.7125 0.0
-0.948766 0.75 0.0
-0.895417 0 0.0
-0.895855 0.1 0.0
-0.893136 0.05 0.0
-0.896294 0.2 0.0
-0.888573 0.15 0.0
-0.949184 0.85 0.0
-0.954415 0.9 0.0
-0.949812 1 0.0
-0.949603 0.95 0.0
-0.884011 0.25 0.0
-0.896733 0.3 0.0
-0.874887 0.45 0.0
-0.879449 0.35 0.0
-0.897171 0.4 0.0
-0.920423 0.55 0.0
-0.918132 0.6 0.0
-0.915841 0.65 0.0
-0.872606 0.5 0.0
-0.908968 0.8 0.0
-0.91355 0.7 0.0
-0.898707 0.75 0.0
-0.845208 0 0.0
-0.845438 0.05 0.0
-0.845667 0.1 0.0
-0.845896 0.15 0.0
-0.833853 0.25 0.0
-0.846126 0.2 0.0
-0.899146 0.85 0.0
-0.904386 0.9 0.0
-0.899584 0.95 0.0
-0.899804 1 0.0
-0.838062 0.35 0.0
[...]
POINT_DATA 10839
VECTORS Velocity float
0.21 0 0.0
0.24 0 0.0
0.2275 0 0.0
0.2475 0 0.0
0.25 0 0.0
0.2475 0 0.0
0 0 0.0
0.0475 0 0.0
0.1275 0 0.0
0.09 0 0.0
0.09 0 0.0
0.1275 0 0.0
0.1875 0 0.0
0.16 0 0.0
0.195557 -2.32957e-05 0.0
0.242841 -3.18297e-05 0.0
0.215776 -2.77492e-05 0.0
0.231406 -3.1298e-05 0.0
0.248725 -3.38962e-05 0.0
0.24 0 0.0
0.24284 -3.17569e-05 0.0
0.24852 -3.26416e-05 0.0
0 0 0.0
0.0622239 -4.03323e-06 0.0
0.0322268 -2.66438e-06 0.0
0.16 0 0.0
0.1875 0 0.0
0.21 0 0.0
0.2275 0 0.0
0.193592 -2.61477e-05 0.0
0.138887 -1.44835e-05 0.0
0 0 0.0
0.0475 0 0.0
0.0998416 -1.00414e-05 0.0
0.0622206 -4.07818e-06 0.0
0.0998461 -1.04944e-05 0.0
0.138891 -1.46151e-05 0.0
0.17438 -3.67119e-05 0.0
0.201605 -5.03496e-05 0.0
0.235787 -6.15455e-05 0.0
0.244085 -6.44162e-05 0.0
0.223602 -8.25354e-05 0.0
0.249751 -6.73133e-05 0.0
0.249044 -7.50212e-05 0.0
0.231404 -3.1807e-05 0.0
0.244081 -6.36485e-05 0.0
0 0 0.0
0.0361076 -5.16454e-06 0.0
0.0736123 -1.44616e-05 0.0
0.0622482 -1.58565e-05 0.0
0.17437 -3.61648e-05 0.0
0.220162 -5.03472e-05 0.0
0.201594 -5.04201e-05 0.0
0.115549 -2.16301e-05 0.0
0.146676 -3.35732e-05 0.0
0 0 0.0
0.0360877 -3.4743e-06 0.0
0.0693664 -1.12947e-05 0.0
0.089984 -2.24638e-05 0.0
0.109391 -3.04272e-05 0.0
0.146691 -3.29296e-05 0.0
0.178902 -6.16416e-05 0.0
0.206293 -8.07046e-05 0.0
0.2145 -0.000108887 0.0
0.238527 -9.65806e-05 0.0
0.24735 -0.000100597 0.0
0.229607 -0.000123028 0.0
0.226324 -8.67304e-05 0.0
0.249983 -0.000101099 0.0
0.246426 -9.83427e-05 0.0
0.23668 -9.25591e-05 0.0
0 0 0.0
0.0322495 -5.84478e-06 0.0
0.0956956 -3.4581e-05 0.0
0.0694276 -2.60577e-05 0.0
0.178876 -6.0693e-05 0.0
0.206269 -8.13076e-05 0.0
0.127477 -4.67265e-05 0.0
0.165874 -7.68669e-05 0.0
0.152326 -5.49608e-05 0.0
0 0 0.0
0.0360801 -5.00156e-06 0.0
0.0621967 -1.56857e-05 0.0
0.095631 -3.52259e-05 0.0
0.127524 -4.71854e-05 0.0
0.15666 -6.86618e-05 0.0
0.115599 -5.4221e-05 0.0
0.193625 -0.000113545 0.0
0.218141 -0.000143861 0.0
0.24094 -0.000131133 0.0
0.247737 -0.000136026 0.0
0.25 -0.000137519 0.0
0.234397 -0.000166679 0.0
0.229577 -0.000121316 0.0
0.247727 -0.000135723 0.0
0.24092 -0.000130896 0.0
0 0 0.0
0.0344855 -8.10754e-06 0.0
0.103119 -5.33067e-05 0.0
0.0623004 -2.64129e-05 0.0
0.189727 -9.63904e-05 0.0
0.212989 -0.000134894 0.0
0.170535 -0.000104436 0.0
0.144331 -7.74141e-05 0.0
0 0 0.0
0.0398992 -8.62852e-06 0.0
0.099788 -4.8407e-05 0.0
0.0693229 -2.56221e-05 0.0
0.170623 -0.000104577 0.0
0.14442 -7.90965e-05 0.0
0.124375 -8.0274e-05 0.0
0.183648 -0.000132398 0.0
0.20413 -0.000158676 0.0
0.222037 -0.000187006 0.0
0.249109 -0.000180804 0.0
0.244026 -0.000175961 0.0
0.24912 -0.000180814 0.0
0.23855 -0.000212566 0.0
0.234353 -0.000165688 0.0
0.244883 -0.000190667 0.0
0 0 0.0
0.0322894 -8.59503e-06 0.0
0.0940712 -5.60885e-05 0.0
0.0652136 -3.34766e-05 0.0
0.196697 -0.00014483 0.0
0.217872 -0.000178159 0.0
0.17744 -0.000147083 0.0
0.148692 -0.000102402 0.0
0.120331 -7.15585e-05 0.0
0 0 0.0
0.0343926 -8.18328e-06 0.0
0.0716469 -3.35562e-05 0.0
0.152422 -0.000114967 0.0
0.127611 -9.98749e-05 0.0
0.187576 -0.000164498 0.0
0.211949 -0.00020516 0.0
0.248606 -0.000224791 0.0
0.225684 -0.00023261 0.0
0.249783 -0.000226432 0.0
0.246474 -0.000222597 0.0
0.242064 -0.000260882 0.0
0.238491 -0.000211956 0.0
0 0 0.0
0.0338707 -1.07897e-05 0.0
0.0999889 -7.51136e-05 0.0
0.0695399 -4.46633e-05 0.0
0.206262 -0.000191981 0.0
0.222406 -0.000224002 0.0
0.189978 -0.000199678 0.0
0.168256 -0.000161059 0.0
0.143007 -0.000123355 0.0
0.124197 -9.08455e-05 0.0
0.0970871 -6.09091e-05 0.0
0 0 0.0
0.0360235 -1.04398e-05 0.0
0.0673188 -3.60023e-05 0.0
0.13033 -0.000120938 0.0
0.16848 -0.000161877 0.0
0.19947 -0.000211464 0.0
0.218377 -0.000248419 0.0
0.241993 -0.000261513 0.0
0.25 -0.000273045 0.0
0.247989 -0.000269844 0.0
0.22908 -0.000280541 0.0
0.244937 -0.00031119 0.0
0.24874 -0.000286666 0.0
0.234446 -0.000268068 0.0
0 0 0.0
0.0362277 -1.3933e-05 0.0
0.122654 -0.00012407 0.0
0.0712227 -5.29203e-05 0.0
0.208352 -0.000235264 0.0
0.225128 -0.000280357 0.0
0.198051 -0.000244487 0.0
0.177728 -0.000202226 0.0
0.146529 -0.000148865 0.0
0.119136 -0.000103783 0.0
0.0970551 -6.91849e-05 0.0
0 0 0.0
0.0349424 -1.16998e-05 0.0
0.0672827 -4.05847e-05 0.0
0.152297 -0.00016948 0.0
0.178014 -0.000207057 0.0
0.210113 -0.000262246 0.0
0.244859 -0.000311107 0.0
0.24942 -0.000319636 0.0
0.232224 -0.000330598 0.0
0.244196 -0.000354538 0.0
0.249989 -0.000378621 0.0
0.249132 -0.000336011 0.0
0.235914 -0.000321653 0.0
0.21296 -0.000320945 0.0
0 0 0.0
0.0371552 -1.64369e-05 0.0
0.141105 -0.000173088 0.0
0.0999503 -0.000104414 0.0
0.0665918 -5.16066e-05 0.0
0.213631 -0.000286815 0.0
0.186611 -0.000249624 0.0
0.165089 -0.000202939 0.0
0.122246 -0.000124692 0.0
0.0928713 -7.59904e-05 0.0
0 0 0.0
0.0349138 -1.30758e-05 0.0
0.0642329 -4.31361e-05 0.0
0.165593 -0.000217116 0.0
0.186964 -0.000255305 0.0
0.158118 -0.000227415 0.0
0.247092 -0.000364165 0.0
0.248692 -0.000419188 0.0
0.23105 -0.000371738 0.0
0.240524 -0.000396831 0.0
0.248757 -0.00041884 0.0
0.240204 -0.000370561 0.0
0.229258 -0.000364228 0.0
0.199178 -0.000314344 0.0
0.218631 -0.000376103 0.0
0 0 0.0
0.0346419 -1.61344e-05 0.0
0.126162 -0.000168376 0.0
0.0681691 -5.83814e-05 0.0
0.0988109 -0.000113832 0.0
0.208086 -0.000328698 0.0
0.189764 -0.000286391 0.0
0.168131 -0.000237514 0.0
0.140625 -0.000171738 0.0
0.0954154 -9.05373e-05 0.0
0 0 0.0
0.0332589 -1.33919e-05 0.0
0.0660637 -5.14169e-05 0.0
0.183218 -0.000297134 0.0
0.159256 -0.000254824 0.0
0.244899 -0.000432405 0.0
0.24966 -0.000475051 0.0
0.235959 -0.000435646 0.0
0.244857 -0.000460544 0.0
0.249378 -0.000473839 0.0
0.238622 -0.000438016 0.0
0.218424 -0.00039582 0.0
0.2031 -0.000367317 0.0
0.223367 -0.000430513 0.0
0 0 0.0
0.0477965 -3.22816e-05 0.0
0.127912 -0.000192224 0.0
0.0904138 -0.000106876 0.0
0.202612 -0.000353713 0.0
0.177972 -0.000290688 0.0
0.147894 -0.000217833 0.0
0.118726 -0.000142499 0.0
0.078036 -7.59644e-05 0.0
0 0 0.0
0.0342385 -1.57882e-05 0.0
0.187826 -0.000352344 0.0
0.160393 -0.00028384 0.0
0.246453 -0.000494744 0.0
0.25 -0.000533381 0.0
0.240137 -0.000503583 0.0
0.247576 -0.000555522 0.0
0.239862 -0.000503175 0.0
0.227295 -0.000465807 0.0
0.209734 -0.000414246 0.0
0.22772 -0.000489063 0.0
0.210285 -0.000431818 0.0
0 0 0.0
0.0478582 -3.60122e-05 0.0
0.128006 -0.000214823 0.0
0.0904944 -0.000117581 0.0
0.187176 -0.000350457 0.0
0.159625 -0.000274421 0.0
0.0472075 -3.16263e-05 0.0
0.127092 -0.000189512 0.0
0.0895989 -0.000104547 0.0
0 0 0.0
0.187901 -0.000396402 0.0
0.160482 -0.000318006 0.0
0.247421 -0.000561919 0.0
0.249999 -0.000601577 0.0
0.240169 -0.000568305 0.0
0.247593 -0.000625106 0.0
0.227249 -0.000525043 0.0
0.23983 -0.000567207 0.0
0.187101 -0.000394147 0.0
0.209672 -0.000466599 0.0
0.22776 -0.000537353 0.0
0.210349 -0.000485866 0.0
0 0 0.0
0.0479263 -3.95139e-05 0.0
0.12811 -0.000239045 0.0
0.0906038 -0.00013194 0.0
0.126998 -0.000212546 0.0
0.159539 -0.000308218 0.0
0.0471498 -3.5073e-05 0.0
0.0895108 -0.00011626 0.0
0 0 0.0
0.187986 -0.000443091 0.0
0.160583 -0.000354795 0.0
0.247404 -0.00063131 0.0
0.249999 -0.00067456 0.0
0.227804 -0.000589895 0.0
0.24022 -0.000665459 0.0
0.247611 -0.000700159 0.0
0.227205 -0.00057531 0.0
0.239794 -0.000635971 0.0
0.187038 -0.000427761 0.0
0.209601 -0.000522468 0.0
0.210421 -0.000543576 0.0
0 0 0.0
0.0480061 -4.39499e-05 0.0
0.128246 -0.000269081 0.0
0.0907154 -0.000145798 0.0
0.126911 -0.000232305 0.0
0.159442 -0.000343469 0.0
0.0470798 -3.89497e-05 0.0
0.0894133 -0.000128381 0.0
0 0 0.0
0.160695 -0.00039383 0.0
0.188107 -0.00050564 0.0
0.247384 -0.000705701 0.0
0.249998 -0.00075291 0.0
0.240254 -0.000727056 0.0
0.227887 -0.00068292 0.0
0.247632 -0.000779772 0.0
0.239753 -0.000709253 0.0
0.227157 -0.000630113 0.0
0.186946 -0.000476175 0.0
0.209523 -0.000581876 0.0
0.210503 -0.000605948 0.0
0 0 0.0
0.0480864 -4.84776e-05 0.0
0.128359 -0.000293499 0.0
0.0908386 -0.000160908 0.0
0.126797 -0.000257186 0.0
0.159333 -0.000381536 0.0
0 0 0.0
0.0893043 -0.000141988 0.0
0.0470093 -4.27877e-05 0.0
0.188216 -0.000562674 0.0
0.16082 -0.000436757 0.0
0.227944 -0.000744937 0.0
0.247362 -0.000786342 0.0
0.249998 -0.00083776 0.0
0.24765 -0.000846885 0.0
0.24029 -0.000791448 0.0
0.239707 -0.000788642 0.0
0.227092 -0.000701102 0.0
0.186814 -0.000541462 0.0
0.209435 -0.000646787 0.0
0.210593 -0.000672587 0.0
0 0 0.0
0.0481778 -5.34451e-05 0.0
0.0909607 -0.000175379 0.0
0.128503 -0.000323887 0.0
0.12665 -0.000288129 0.0
0.159211 -0.00042238 0.0
0 0 0.0
0.0469246 -4.70362e-05 0.0
0.0891974 -0.000154519 0.0
0.188308 -0.000607064 0.0
0.16096 -0.000483351 0.0
0.228005 -0.000811513 0.0
0.240361 -0.000914775 0.0
0.247337 -0.000873746 0.0
0.249997 -0.000929154 0.0
0.24767 -0.000917491 0.0
0.239655 -0.00087452 0.0
0.227019 -0.000778076 0.0
0.186726 -0.000584532 0.0
0.209337 -0.000715943 0.0
0.210695 -0.000745541 0.0
0 0 0.0
0.0482796 -5.86762e-05 0.0
0.128689 -0.000363517 0.0
0.0911259 -0.000195936 0.0
0.126529 -0.000313118 0.0
0.159075 -0.000466541 0.0
0.0468402 -5.10511e-05 0.0
0 0 0.0
0.0890534 -0.000171364 0.0
0.161114 -0.000534073 0.0
0.188475 -0.000687426 0.0
0.228121 -0.000930221 0.0
0.240421 -0.00101412 0.0
0.247697 -0.00101677 0.0
0.247296 -0.00101135 0.0
0.249996 -0.00103016 0.0
0.239598 -0.000969795 0.0
0.226908 -0.000890521 0.0
0.186563 -0.0006612 0.0
0.209227 -0.000792326 0.0
0.210807 -0.000824372 0.0
0 0 0.0
0.0483907 -6.44197e-05 0.0
0.0912915 -0.000214997 0.0
0.161285 -0.000587884 0.0
0.128842 -0.000394302 0.0
0.126373 -0.000344552 0.0
0.158956 -0.000504442 0.0
0.0467421 -5.62879e-05 0.0
0 0 0.0
0.0889219 -0.000186679 0.0
0.210912 -0.000897433 0.0
0.188589 -0.000741913 0.0
0.240472 -0.00109792 0.0
0.228216 -0.00103055 0.0
0.247743 -0.00117373 0.0
0.249995 -0.00113867 0.0
0.24727 -0.00109322 0.0
0.239534 -0.00107156 0.0
0.226831 -0.000966608 0.0
0.186453 -0.000711696 0.0
0.158759 -0.000566858 0.0
0.209105 -0.000874045 0.0
0 0 0.0
0.0914575 -0.000235176 0.0
0.0485213 -7.16914e-05 0.0
0.161436 -0.000637181 0.0
0.129068 -0.000442452 0.0
0.126201 -0.000379171 0.0
0 0 0.0
0.0466347 -6.17098e-05 0.0
0.0887466 -0.000206799 0.0
0.211028 -0.000974838 0.0
0.188793 -0.000840681 0.0
0.240527 -0.00118801 0.0
0.228322 -0.00113883 0.0
0.247769 -0.00126998 0.0
0.249993 -0.00125825 0.0
0.247243 -0.00118303 0.0
0.158612 -0.000609877 0.0
0.208991 -0.00094933 0.0
0.239463 -0.00118171 0.0
0.226747 -0.00104932 0.0
0.186295 -0.000784705 0.0
0 0 0.0
0.0486501 -7.82746e-05 0.0
0.0916559 -0.000258703 0.0
0.161641 -0.000701816 0.0
0.129289 -0.000488033 0.0
0.0885696 -0.000226167 0.0
0.125981 -0.000422378 0.0
0 0 0.0
0.0465115 -6.80083e-05 0.0
0.211176 -0.00107555 0.0
0.18898 -0.000928123 0.0
0.240603 -0.00131114 0.0
0.228439 -0.00125758 0.0
0.247799 -0.00137277 0.0
0.249993 -0.00138997 0.0
0.247186 -0.00136201 0.0
0.158414 -0.00067022 0.0
0.239385 -0.00130441 0.0
0.208868 -0.00102839 0.0
0.226596 -0.00119832 0.0
0.186073 -0.000887383 0.0
0 0 0.0
0.0918996 -0.000288111 0.0
0.0487992 -8.62578e-05 0.0
0.161915 -0.000788197 0.0
0.129531 -0.000538176 0.0
0.0883962 -0.000245769 0.0
0.125769 -0.000464694 0.0
0 0 0.0
0.0463815 -7.46243e-05 0.0
0.189183 -0.00102502 0.0
0.21134 -0.00118707 0.0
0.240687 -0.00144822 0.0
0.247841 -0.00151222 0.0
0.228568 -0.00138723 0.0
0.24999 -0.00153097 0.0
0.247142 -0.00150514 0.0
0.239298 -0.00143618 0.0
0.249556 -0.00164046 0.0
0.158194 -0.00073617 0.0
0.226467 -0.00132145 0.0
0.208655 -0.00116546 0.0
0.185925 -0.000953266 0.0
0 0 0.0
0.0921224 -0.000315189 0.0
0.0489741 -9.62414e-05 0.0
0.162119 -0.000853297 0.0
0.129798 -0.000593498 0.0
0.0881861 -0.000269165 0.0
0.125571 -0.0005032 0.0
0 0 0.0
0.0462474 -8.14125e-05 0.0
0.189409 -0.00113059 0.0
0.211521 -0.00130983 0.0
0.240776 -0.00159563 0.0
0.228711 -0.00153184 0.0
0.247907 -0.00174397 0.0
0.249169 -0.00164043 0.0
0.243785 -0.00159209 0.0
0.23341 -0.00149516 0.0
0.249986 -0.00177415 0.0
0.157952 -0.000808347 0.0
0.21805 -0.0013533 0.0
0.203249 -0.00122302 0.0
0.185654 -0.00107198 0.0
0 0 0.0
0.0923896 -0.000347852 0.0
0.049156 -0.000105718 0.0
0.162394 -0.000941736 0.0
0.130094 -0.000655427 0.0
0.125278 -0.000559761 0.0
0.0879547 -0.0002951 0.0
0 0 0.0
0.046086 -8.88545e-05 0.0
0.189659 -0.00124778 0.0
0.211721 -0.00144517 0.0
0.247954 -0.0019207 0.0
0.228868 -0.00168952 0.0
0.24088 -0.00176075 0.0
0.247061 -0.00175196 0.0
0.239138 -0.00167687 0.0
0.226225 -0.00154995 0.0
0.249979 -0.00195494 0.0
0.157684 -0.000888659 0.0
0.208333 -0.00137192 0.0
0.185409 -0.00117929 0.0
0 0 0.0
0.0493479 -0.000116121 0.0
0.0926853 -0.000384955 0.0
0.130369 -0.00071278 0.0
0.189933 -0.00137509 0.0
0.1627 -0.00103946 0.0
0.124995 -0.000613907 0.0
0.0877006 -0.000323541 0.0
0.0459152 -9.72977e-05 0.0
0 0 0.0
0.22901 -0.00183277 0.0
0.211942 -0.0015963 0.0
0.247999 -0.00207335 0.0
0.24099 -0.00194441 0.0
0.226057 -0.0017051 0.0
0.246998 -0.00192933 0.0
0.23902 -0.00184617 0.0
0.249975 -0.0021539 0.0
0.185143 -0.00129493 0.0
0.157329 -0.000992135 0.0
0.208045 -0.00155214 0.0
0 0 0.0
0.0495707 -0.000129118 0.0
0.0930478 -0.000430064 0.0
0.130723 -0.000786377 0.0
0.190157 -0.00148409 0.0
0.163106 -0.00117515 0.0
0.124686 -0.000672174 0.0
0.0873947 -0.000357446 0.0
0.0457303 -0.000105997 0.0
0 0 0.0
0.124343 -0.00073809 0.0
0.229162 -0.00198259 0.0
0.212262 -0.00181907 0.0
0.241163 -0.00223319 0.0
0.248045 -0.00223453 0.0
0.225803 -0.00193845 0.0
0.238894 -0.00203055 0.0
0.246932 -0.00212632 0.0
0.249964 -0.00237298 0.0
0.184848 -0.00142232 0.0
0.156997 -0.00109227 0.0
0.207798 -0.00170991 0.0
0 0 0.0
0.049817 -0.000142821 0.0
0.0934147 -0.00047654 0.0
0.131115 -0.000870279 0.0
0.190484 -0.00163678 0.0
0.163488 -0.0013007 0.0
0.0455241 -0.000116986 0.0
0.0870838 -0.000392576 0.0
0 0 0.0
0.124027 -0.000796671 0.0
0.229365 -0.00219173 0.0
0.212539 -0.00201067 0.0
0.241302 -0.0024633 0.0
0.248106 -0.00246648 0.0
0.225626 -0.00209891 0.0
0.238755 -0.00223351 0.0
0.249956 -0.00261586 0.0
0.24682 -0.00244581 0.0
0.184606 -0.00152349 0.0
0.156633 -0.00119935 0.0
0.207525 -0.00187816 0.0
0 0 0.0
0.0500878 -0.00015781 0.0
0.0938177 -0.000526915 0.0
0.131613 -0.000976461 0.0
0.190936 -0.00185347 0.0
0.212842 -0.00222452 0.0
0.163905 -0.00144147 0.0
0.045314 -0.00012728 0.0
0.0867465 -0.000429684 0.0
0 0 0.0
0.123622 -0.000873525 0.0
0.229667 -0.00250136 0.0
0.241421 -0.00266951 0.0
0.248173 -0.00272149 0.0
0.249945 -0.00281651 0.0
0.225439 -0.00226793 0.0
0.238593 -0.0024609 0.0
0.246731 -0.00269325 0.0
0.156232 -0.00131779 0.0
0.184257 -0.00167317 0.0
0.207222 -0.002063 0.0
0 0 0.0
0.0504084 -0.000176925 0.0
0.0942686 -0.000586468 0.0
0.132101 -0.00108548 0.0
0.191241 -0.00200313 0.0
0.213173 -0.00245741 0.0
0.164369 -0.00159798 0.0
0.0450708 -0.000138836 0.0
0.0863755 -0.000470488 0.0
0 0 0.0
0.155885 -0.00141382 0.0
0.0859706 -0.000513123 0.0
0.123107 -0.000969595 0.0
0.22992 -0.00277657 0.0
0.241547 -0.00288254 0.0
0.248277 -0.00313771 0.0
0.249936 -0.00302689 0.0
0.246655 -0.00290401 0.0
0.225188 -0.00249088 0.0
0.238348 -0.0028137 0.0
0.183769 -0.00187712 0.0
0.206941 -0.00223935 0.0
0.230147 -0.00301094 0.0
0 0 0.0
0.0507471 -0.000197145 0.0
0.132641 -0.00120819 0.0
0.0947679 -0.000654636 0.0
0.213542 -0.00272521 0.0
0.19179 -0.00227615 0.0
0.164879 -0.00177347 0.0
0.0447932 -0.000151894 0.0
0 0 0.0
0.183444 -0.00201602 0.0
0.15541 -0.00155124 0.0
0.122608 -0.00106439 0.0
0.044498 -0.000167094 0.0
0.0855234 -0.00056289 0.0
0.241722 -0.00318621 0.0
0.248338 -0.0033896 0.0
0.249913 -0.00333666 0.0
0.249897 -0.0035934 0.0
0.246568 -0.00312773 0.0
0.224905 -0.00273939 0.0
0.238137 -0.00309672 0.0
0.206634 -0.00241872 0.0
0.230382 -0.00327013 0.0
0.0511083 -0.000220563 0.0
0 0 0.0
0.133145 -0.00132205 0.0
0.0953203 -0.00072969 0.0
0.213941 -0.00302079 0.0
0.192159 -0.00246411 0.0
0.165445 -0.0019732 0.0
0 0 0.0
0.182979 -0.00220541 0.0
0.154779 -0.00172813 0.0
0.122151 -0.00114425 0.0
0.0441969 -0.000181666 0.0
0.085037 -0.00061526 0.0
0.241982 -0.00366817 0.0
0.248402 -0.00365357 0.0
0.249872 -0.00386306 0.0
0.24639 -0.00358638 0.0
0.224599 -0.00300633 0.0
0.237914 -0.00340516 0.0
0.206115 -0.0027307 0.0
0.230705 -0.00362488 0.0
0 0 0.0
0.0515287 -0.000248628 0.0
0.133795 -0.00147625 0.0
0.0958781 -0.000809409 0.0
0.166068 -0.0021947 0.0
0.214382 -0.00335627 0.0
0.192828 -0.00280785 0.0
0 0 0.0
0 0 0.0
0.182462 -0.00241742 0.0
0.154195 -0.00189479 0.0
0.121563 -0.00125277 0.0
0.0845049 -0.000671921 0.0
0.0438501 -0.000197495 0.0
0.242188 -0.00405712 0.0
0.24848 -0.00403529 0.0
0.237712 -0.00367146 0.0
0.249836 -0.0042547 0.0
0.24624 -0.00395186 0.0
0.224254 -0.00330331 0.0
0.205662 -0.00299204 0.0
0.242359 -0.0044032 0.0
0.231039 -0.00401957 0.0
0.051996 -0.00027768 0.0
0.0965552 -0.000902958 0.0
0.134524 -0.00165636 0.0
0.166618 -0.00240205 0.0
0.214865 -0.00372837 0.0
0.193272 -0.00305532 0.0
0 0 0.0
0 0 0.0
0.15369 -0.00202787 0.0
0.181747 -0.00269896 0.0
0.0839823 -0.000724064 0.0
0.120821 -0.00138484 0.0
0.0434702 -0.000216372 0.0
0.248605 -0.00464394 0.0
0.249781 -0.0046911 0.0
0.205169 -0.00327592 0.0
0.237489 -0.00395114 0.0
0.246114 -0.00425919 0.0
0.22373 -0.00373876 0.0
0.242544 -0.00476413 0.0
0.231553 -0.00462598 0.0
0.215385 -0.0041512 0.0
0.0525553 -0.000315224 0.0
0.0973192 -0.00102079 0.0
0.135459 -0.0018965 0.0
0.167369 -0.00268264 0.0
0.19408 -0.0035084 0.0
0 0 0.0
0 0 0.0
0.152859 -0.00224928 0.0
0.181108 -0.00295378 0.0
0.0832882 -0.00079611 0.0
0.120109 -0.00150677 0.0
0.0430398 -0.000234613 0.0
0.245971 -0.00458667 0.0
0.249717 -0.00515999 0.0
0.248677 -0.00513393 0.0
0.204624 -0.00358067 0.0
0.237188 -0.00433832 0.0
0.22329 -0.00410624 0.0
0.180408 -0.00322314 0.0
0.242869 -0.00548476 0.0
0 0 0.0
0.231944 -0.00515246 0.0
0.1948 -0.00393583 0.0
0.215946 -0.00462359 0.0
0.0531384 -0.000359917 0.0
0.136239 -0.00211201 0.0
0.098277 -0.00118392 0.0
0.168369 -0.00310157 0.0
0 0 0.0
0 0 0.0
0 0 0.0
0 0 0.0
0 0 0.0
0.042615 -0.000251884 0.0
0.119328 -0.00164108 0.0
0.152091 -0.00245294 0.0
0.0826693 -0.000858389 0.0
0.24576 -0.00503079 0.0
0.249628 -0.00567782 0.0
0.248753 -0.0056709 0.0
0.222889 -0.00441303 0.0
0.204017 -0.00390996 0.0
0.23669 -0.00492751 0.0
0.203459 -0.00420626 0.0
0.179838 -0.00343134 0.0
0.243102 -0.00608079 0.0
0.232367 -0.00572397 0.0
0 0 0.0
8.11656e-05 -3.95836e-05 0.0
0 0 0.0
-0.000146638 0.000398688 0.0
0.216555 -0.00516744 0.0
0.195388 -0.00429274 0.0
0.0538665 -0.000420064 0.0
0.137249 -0.00240025 0.0
0.0992701 -0.00136548 0.0
0.169315 -0.00351809 0.0
0 0 0.0
0 0 0.0
0 0 0.0
-9.11579e-05 5.01191e-05 0.0
3.22197e-05 -0.000184838 0.0
0.000133064 -0.000147118 0.0
0 0 0.0
0.0421278 -0.000273871 0.0
0.118617 -0.00175636 0.0
0.151254 -0.00266438 0.0
0.0818499 -0.000935972 0.0
0.245523 -0.00552535 0.0
0.249513 -0.00623992 0.0
0.248812 -0.00625371 0.0
0.222455 -0.00474547 0.0
0.236375 -0.00530657 0.0
0.202849 -0.004511 0.0
0.178801 -0.00379946 0.0
0.243342 -0.00672965 0.0
0.235885 -0.00642906 0.0
0.225559 -0.00600524 0.0
0 0 0.0
0.000198733 -4.59705e-05 0.0
0 0 0.0
0 0 0.0
-0.000564964 0.001317 0.0
-0.00045713 0.000613985 0.0
0.212347 -0.0054948 0.0
0.196215 -0.0048394 0.0
0.100287 -0.00156603 0.0
0.0546411 -0.000499417 0.0
0.13838 -0.0027598 0.0
0.170338 -0.00400808 0.0
0 0 0.0
-5.93041e-05 -0.000187599 0.0
-0.00024016 8.46665e-05 0.0
6.30194e-05 -0.000208083 0.0
0.000198261 -9.64734e-05 0.0
0 0 0.0
0.0416032 -0.00029579 0.0
0.117711 -0.0018988 0.0
0.150345 -0.00287939 0.0
0.0810355 -0.00101099 0.0
0.245241 -0.00605329 0.0
0.249371 -0.00684737 0.0
0.248853 -0.00689021 0.0
0.221657 -0.00533636 0.0
0.236017 -0.00569333 0.0
0.202065 -0.00489874 0.0
0.149349 -0.00311701 0.0
0.177879 -0.00411911 0.0
0.243526 -0.00728782 0.0
0.23309 -0.00683386 0.0
0.217663 -0.00627968 0.0
0 0 0.0
0.000265474 -7.44839e-06 0.0
0 0 0.0
0 0 0.0
0 0 0.0
0 0 0.0
-0.000736538 0.000704361 0.0
-0.00019097 0.00134411 0.0
-0.000638249 0.00198481 0.0
-0.00142424 0.00276583 0.0
-0.00105863 0.0015857 0.0
0 0 0.0
-0.000109749 0.0029137 0.0
0.197318 -0.00566663 0.0
0.171221 -0.00448681 0.0
0 0 0.0
0.0556479 -0.000616726 0.0
0.10157 -0.00185538 0.0
0.139845 -0.00332267 0.0
0 0 0.0
0 0 0.0
-0.000291098 0.000118235 0.0
-5.67463e-05 9.07579e-07 0.0