# vtk DataFile Version 3.0
Mesh NS-CD Problem
ASCII
DATASET UNSTRUCTURED_GRID
POINTS 10839 float
-2 0.3 0.0
-2 0.4 0.0
-2 0.35 0.0
-2 0.45 0.0
-2 0.5 0.0
-2 0.55 0.0
-2 0 0.0
-2 0.05 0.0
-2 0.85 0.0
-2 0.9 0.0
-2 0.1 0.0
-2 0.15 0.0
-2 0.25 0.0
-2 0.2 0.0
-1.96653 0.266667 0.0
-1.96524 0.415385 0.0
-1.96485 0.315 0.0
-1.96348 0.363636 0.0
-1.96414 0.464286 0.0
-2 0.6 0.0
-1.96538 0.584615 0.0
-1.96538 0.538462 0.0
-1.94979 0 0.0
-1.96653 0.0666666 0.0
-1.93306 0.0333333 0.0
-2 0.8 0.0
-2 0.75 0.0
-2 0.7 0.0
-2 0.65 0.0
-1.96249 0.7375 0.0
-1.96666 0.833333 0.0
-2 1 0.0
-2 0.95 0.0
-1.96249 0.8875 0.0
-1.96666 0.933333 0.0
-1.96234 0.1125 0.0
-1.96653 0.166667 0.0
-1.93724 0.225 0.0
-1.92971 0.28 0.0
-1.93048 0.380769 0.0
-1.93048 0.423077 0.0
-1.89958 0.3375 0.0
-1.9292 0.484203 0.0
-1.92117 0.530907 0.0
-1.96363 0.636364 0.0
-1.93076 0.576923 0.0
-1.89958 0 0.0
-1.88703 0.0375 0.0
-1.90963 0.08 0.0
-1.86611 0.0666666 0.0
-1.93749 0.775 0.0
-1.93635 0.672727 0.0
-1.92999 0.72 0.0
-1.93332 0.866667 0.0
-1.92856 0.821429 0.0
-1.94999 1 0.0
-1.92499 0.9625 0.0
-1.92499 0.925 0.0
-1.89998 0.9 0.0
-1.89958 0.125 0.0
-1.92827 0.178571 0.0
-1.89958 0.233333 0.0
-1.89045 0.290909 0.0
-1.86096 0.311538 0.0
-1.89241 0.392857 0.0
-1.89334 0.448489 0.0
-1.85655 0.357143 0.0
-1.89614 0.653846 0.0
-1.89427 0.504121 0.0
-1.8952 0.559753 0.0
-1.89614 0.615385 0.0
-1.84937 0 0.0
-1.83264 0.0333333 0.0
-1.85655 0.107143 0.0
-1.81172 0.075 0.0
-1.89998 0.766667 0.0
-1.89089 0.709091 0.0
-1.87498 0.85 0.0
-1.85998 0.79 0.0
-1.88748 0.8125 0.0
-1.89998 1 0.0
-1.88748 0.9625 0.0
-1.86664 0.933333 0.0
-1.85712 0.892857 0.0
-1.87448 0.15 0.0
-1.86611 0.194444 0.0
-1.83264 0.133333 0.0
-1.83264 0.2625 0.0
-1.82068 0.321429 0.0
-1.85664 0.404762 0.0
-1.85674 0.452381 0.0
-1.85683 0.5 0.0
-1.81184 0.375 0.0
-1.85712 0.642857 0.0
-1.85693 0.547619 0.0
-1.85702 0.595238 0.0
-1.79917 0 0.0
-1.78482 0.0357143 0.0
-1.79917 0.116667 0.0
-1.76569 0.0666666 0.0
-1.85452 0.745455 0.0
-1.82689 0.692308 0.0
-1.81815 0.781818 0.0
-1.82497 0.825 0.0
-1.84997 1 0.0
-1.8333 0.958333 0.0
-1.81247 0.8875 0.0
-1.81247 0.925 0.0
-1.81742 0.218182 0.0
-1.82427 0.175 0.0
-1.77634 0.145455 0.0
-1.79144 0.242308 0.0
-1.78482 0.285714 0.0
-1.77469 0.332653 0.0
-1.81215 0.529762 0.0
-1.81194 0.422619 0.0
-1.81203 0.470238 0.0
-1.76714 0.392857 0.0
-1.81234 0.625 0.0
-1.79732 0.571429 0.0
-1.74896 0 0.0
-1.73222 0.0333333 0.0
-1.75398 0.105 0.0
-1.71883 0.07 0.0
-1.79227 0.730769 0.0
-1.78007 0.679121 0.0
-1.75765 0.769231 0.0
-1.78178 0.818182 0.0
-1.78996 0.86 0.0
-1.79996 1 0.0
-1.78568 0.964286 0.0
-1.76663 0.922222 0.0
-1.76569 0.1875 0.0
-1.73222 0.15 0.0
-1.74896 0.25 0.0
-1.73714 0.304762 0.0
-1.76743 0.537202 0.0
-1.72869 0.343878 0.0
-1.76732 0.485119 0.0
-1.76723 0.440476 0.0
-1.72243 0.410714 0.0
-1.76757 0.607143 0.0
-1.69875 0 0.0
-1.68369 0.035 0.0
-1.69875 0.1125 0.0
-1.66528 0.075 0.0
-1.74341 0.708974 0.0
-1.73324 0.665934 0.0
-1.70441 0.74478 0.0
-1.71423 0.785714 0.0
-1.72303 0.826923 0.0
-1.74541 0.854545 0.0
-1.74541 0.890909 0.0
-1.74996 1 0.0
-1.73745 0.9625 0.0
-1.71359 0.927273 0.0
-1.68716 0.153846 0.0
-1.7131 0.214286 0.0
-1.70725 0.275 0.0
-1.69712 0.321939 0.0
-1.72279 0.589286 0.0
-1.72261 0.5 0.0
-1.7227 0.544643 0.0
-1.6827 0.355102 0.0
-1.67773 0.428571 0.0
-1.70763 0.464286 0.0
-1.70369 0.62449 0.0
-1.64854 0 0.0
-1.63181 0.0375 0.0
-1.64137 0.142857 0.0
-1.61764 0.0769231 0.0
-1.69458 0.703846 0.0
-1.67471 0.657437 0.0
-1.66143 0.727637 0.0
-1.67125 0.768571 0.0
-1.67851 0.821429 0.0
-1.68841 0.861538 0.0
-1.70904 0.890909 0.0
-1.69995 1 0.0
-1.68176 0.963636 0.0
-1.67267 0.927273 0.0
-1.65427 0.187143 0.0
-1.66718 0.231429 0.0
-1.66554 0.3 0.0
-1.67802 0.571429 0.0
-1.67792 0.523809 0.0
-1.6367 0.366327 0.0
-1.63682 0.423469 0.0
-1.62568 0.502976 0.0
-1.6629 0.470238 0.0
-1.65254 0.618367 0.0
-1.6059 0.307143 0.0
-1.59833 0 0.0
-1.58288 0.0384615 0.0
-1.60563 0.169643 0.0
-1.58179 0.112271 0.0
-1.56964 0.0714286 0.0
-1.64574 0.690385 0.0
-1.62827 0.751429 0.0
-1.63371 0.791071 0.0
-1.64279 0.857143 0.0
-1.65378 0.896154 0.0
-1.64994 1 0.0
-1.6363 0.963636 0.0
-1.61916 0.930769 0.0
-1.61345 0.209107 0.0
-1.62126 0.248571 0.0
-1.56989 0.196429 0.0
-1.63324 0.553571 0.0
-1.58846 0.535714 0.0
-1.59408 0.361905 0.0
-1.59161 0.402211 0.0
-1.58832 0.464286 0.0
-1.61504 0.598581 0.0
-1.59683 0.64359 0.0
-1.57899 0.274107 0.0
-1.56176 0.322381 0.0
-1.54812 0 0.0
-1.53378 0.0357143 0.0
-1.54593 0.147619 0.0
-1.53385 0.0732143 0.0
-1.53393 0.110714 0.0
-1.58522 0.704286 0.0
-1.58709 0.745 0.0
-1.58896 0.785714 0.0
-1.60695 0.830357 0.0
-1.60707 0.892857 0.0
-1.59993 1 0.0
-1.58454 0.965385 0.0
-1.57135 0.928571 0.0
-1.55209 0.241071 0.0
-1.5291 0.198214 0.0
-1.56936 0.570918 0.0
-1.54369 0.517857 0.0
-1.5464 0.380952 0.0
-1.54564 0.427721 0.0
-1.54488 0.47449 0.0
-1.55026 0.606122 0.0
-1.54222 0.677143 0.0
-1.52943 0.282857 0.0
-1.52143 0.33619 0.0
-1.49792 0 0.0
-1.49802 0.05 0.0
-1.49822 0.15 0.0
-1.49312 0.1 0.0
-1.5423 0.717143 0.0
-1.54419 0.767857 0.0
-1.54727 0.819048 0.0
-1.57122 0.861905 0.0
-1.53553 0.914286 0.0
-1.54992 1 0.0
-1.53563 0.964286 0.0
-1.49842 0.25 0.0
-1.48831 0.2 0.0
-1.5214 0.558929 0.0
-1.49891 0.5 0.0
-1.49871 0.4 0.0
-1.47631 0.45 0.0
-1.49911 0.6 0.0
-1.49921 0.65 0.0
-1.49931 0.7 0.0
-1.48111 0.35 0.0
-1.48351 0.3 0.0
-1.44771 0 0.0
-1.44782 0.05 0.0
-1.44804 0.15 0.0
-1.44793 0.1 0.0
-1.49941 0.75 0.0
-1.49951 0.8 0.0
-1.49981 0.95 0.0
-1.49961 0.85 0.0
-1.49971 0.9 0.0
-1.49991 1 0.0
-1.44826 0.25 0.0
-1.43815 0.2 0.0
-1.47151 0.55 0.0
-1.44881 0.5 0.0
-1.44859 0.4 0.0
-1.42619 0.45 0.0
-1.44913 0.65 0.0
-1.44902 0.6 0.0
-1.44935 0.75 0.0
-1.44924 0.7 0.0
-1.43972 0.35 0.0
-1.43336 0.3 0.0
-1.3975 0 0.0
-1.39762 0.05 0.0
-1.39786 0.15 0.0
-1.39274 0.1 0.0
-1.44957 0.85 0.0
-1.44946 0.8 0.0
-1.4523 0.95 0.0
-1.44968 0.9 0.0
-1.4499 1 0.0
-1.3981 0.25 0.0
-1.38798 0.2 0.0
-1.42141 0.55 0.0
-1.3987 0.5 0.0
-1.39834 0.35 0.0
-1.37845 0.4 0.0
-1.37607 0.45 0.0
-1.40784 0.65 0.0
-1.39894 0.6 0.0
-1.41185 0.75 0.0
-1.39918 0.7 0.0
-1.38322 0.3 0.0
-1.34729 0 0.0
-1.34492 0.05 0.0
-1.34018 0.15 0.0
-1.34255 0.1 0.0
-1.40707 0.85 0.0
-1.39941 0.8 0.0
-1.39977 0.95 0.0
-1.39965 0.9 0.0
-1.39989 1 0.0
-1.33781 0.2 0.0
-1.33544 0.25 0.0
-1.37131 0.55 0.0
-1.34859 0.5 0.0
-1.33833 0.4 0.0
-1.3307 0.35 0.0
-1.32595 0.45 0.0
-1.34885 0.6 0.0
-1.36655 0.65 0.0
-1.36179 0.75 0.0
-1.34911 0.7 0.0
-1.33307 0.3 0.0
-1.29708 0 0.0
-1.29722 0.05 0.0
-1.2975 0.15 0.0
-1.29236 0.1 0.0
-1.35703 0.85 0.0
-1.34937 0.8 0.0
-1.34988 1 0.0
-1.34962 0.9 0.0
-1.35226 0.95 0.0
-1.28528 0.25 0.0
-1.28764 0.2 0.0
-1.28931 0.35 0.0
-1.32121 0.55 0.0
-1.29848 0.5 0.0
-1.28709 0.45 0.0
-1.2982 0.4 0.0
-1.29876 0.6 0.0
-1.31647 0.65 0.0
-1.29918 0.75 0.0
-1.29904 0.7 0.0
-1.28292 0.3 0.0
-1.24687 0 0.0
-1.24702 0.05 0.0
-1.24717 0.1 0.0
-1.24732 0.15 0.0
-1.29946 0.85 0.0
-1.29932 0.8 0.0
-1.29987 1 0.0
-1.29974 0.95 0.0
-1.30462 0.9 0.0
-1.24762 0.25 0.0
-1.23747 0.2 0.0
-1.24792 0.35 0.0
-1.22807 0.4 0.0
-1.27111 0.55 0.0
-1.24837 0.5 0.0
-1.24822 0.45 0.0
-1.24867 0.6 0.0
-1.26639 0.65 0.0
-1.26167 0.75 0.0
-1.24897 0.7 0.0
-1.23277 0.3 0.0
-1.19667 0 0.0
-1.19683 0.05 0.0
-1.18964 0.15 0.0
-1.19198 0.1 0.0
-1.25695 0.85 0.0
-1.24927 0.8 0.0
-1.25223 0.95 0.0
-1.24987 1 0.0
-1.24957 0.9 0.0
-1.1873 0.2 0.0
-1.18496 0.25 0.0
-1.18028 0.35 0.0
-1.17794 0.4 0.0
-1.1981 0.45 0.0
-1.19842 0.55 0.0
-1.19826 0.5 0.0
-1.19858 0.6 0.0
-1.19874 0.65 0.0
-1.19906 0.75 0.0
-1.1989 0.7 0.0
-1.18262 0.3 0.0
-1.14646 0 0.0
-1.14663 0.05 0.0
-1.1418 0.1 0.0
-1.13713 0.2 0.0
-1.14697 0.15 0.0
-1.20691 0.85 0.0
-1.20926 0.8 0.0
-1.20221 0.95 0.0
-1.19986 1 0.0
-1.20456 0.9 0.0
-1.13997 0.3 0.0
-1.14731 0.25 0.0
-1.13781 0.4 0.0
-1.13014 0.35 0.0
-1.12548 0.45 0.0
-1.14815 0.5 0.0
-1.15962 0.55 0.0
-1.14849 0.6 0.0
-1.15745 0.65 0.0
-1.16155 0.75 0.0
-1.14917 0.8 0.0
-1.14883 0.7 0.0
-1.09625 0 0.0
-1.09661 0.1 0.0
-1.09393 0.05 0.0
-1.09697 0.2 0.0
-1.08929 0.15 0.0
-1.15687 0.85 0.0
-1.14985 1 0.0
-1.15219 0.95 0.0
-1.14951 0.9 0.0
-1.09733 0.3 0.0
-1.08465 0.25 0.0
-1.09769 0.4 0.0
-1.08 0.35 0.0
-1.08661 0.45 0.0
-1.09804 0.5 0.0
-1.12082 0.55 0.0
-1.10916 0.8 0.0
-1.10629 0.7 0.0
-1.0984 0.6 0.0
-1.11616 0.65 0.0
-1.11149 0.75 0.0
-1.04604 0 0.0
-1.04623 0.05 0.0
-1.04642 0.1 0.0
-1.0468 0.2 0.0
-1.03911 0.15 0.0
-1.09948 0.9 0.0
-1.0993 0.85 0.0
-1.09984 1 0.0
-1.09966 0.95 0.0
-1.04718 0.3 0.0
-1.03449 0.25 0.0
-1.04756 0.4 0.0
-1.02986 0.35 0.0
-1.04775 0.45 0.0
-1.04794 0.5 0.0
-1.04813 0.55 0.0
-1.05911 0.8 0.0
-1.04831 0.6 0.0
-1.06376 0.7 0.0
-1.0485 0.65 0.0
-1.04888 0.75 0.0
-0.995833 0 0.0
-0.991231 0.1 0.0
-0.996033 0.05 0.0
-0.986629 0.2 0.0
-0.98893 0.15 0.0
-1.05447 0.9 0.0
-1.04926 0.85 0.0
-1.04983 1 0.0
-1.04964 0.95 0.0
-0.984328 0.25 0.0
-0.99703 0.3 0.0
-0.997429 0.4 0.0
-0.997628 0.45 0.0
-0.979726 0.35 0.0
-0.997827 0.5 0.0
-0.998027 0.55 0.0
-0.998226 0.6 0.0
-0.961416 0.475 0.0
-1.00907 0.8 0.0
-0.998426 0.65 0.0
-0.998625 0.7 0.0
-1.01138 0.75 0.0
-0.945625 0 0.0
-0.946044 0.1 0.0
-0.943334 0.05 0.0
-0.946463 0.2 0.0
-0.938752 0.15 0.0
-1.00444 0.9 0.0
-1.00675 0.85 0.0
-0.999821 1 0.0
-1.00213 0.95 0.0
-0.93417 0.25 0.0
-0.946881 0.3 0.0
-0.9473 0.4 0.0
-0.929588 0.35 0.0
-0.925005 0.45 0.0
-0.960371 0.525 0.0
-0.959325 0.575 0.0
-0.958279 0.625 0.0
-0.922714 0.5 0.0
-0.959017 0.8 0.0
-0.957233 0.675 0.0
-0.952999 0.7125 0.0
-0.948766 0.75 0.0
-0.895417 0 0.0
-0.895855 0.1 0.0
-0.893136 0.05 0.0
-0.896294 0.2 0.0
-0.888573 0.15 0.0
-0.949184 0.85 0.0
-0.954415 0.9 0.0
-0.949812 1 0.0
-0.949603 0.95 0.0
-0.884011 0.25 0.0
-0.896733 0.3 0.0
-0.874887 0.45 0.0
-0.879449 0.35 0.0
-0.897171 0.4 0.0
-0.920423 0.55 0.0
-0.918132 0.6 0.0
-0.915841 0.65 0.0
-0.872606 0.5 0.0
-0.908968 0.8 0.0
-0.91355 0.7 0.0
-0.898707 0.75 0.0
-0.845208 0 0.0
-0.845438 0.05 0.0
-0.845667 0.1 0.0
-0.845896 0.15 0.0
-0.833853 0.25 0.0
-0.846126 0.2 0.0
-0.899146 0.85 0.0
-0.904386 0.9 0.0
-0.899584 0.95 0.0
-0.899804 1 0.0
-0.838062 0.35 0.0
[...]
POINT_DATA 10839
VECTORS Velocity float
0.21 0 0.0
0.24 0 0.0
0.2275 0 0.0
0.2475 0 0.0
0.25 0 0.0
0.2475 0 0.0
0 0 0.0
0.0475 0 0.0
0.1275 0 0.0
0.09 0 0.0
0.09 0 0.0
0.1275 0 0.0
0.1875 0 0.0
0.16 0 0.0
0.195559 -4.10578e-05 0.0
0.242837 -4.10006e-05 0.0
0.215776 -4.91855e-05 0.0
0.231404 -5.05313e-05 0.0
0.248719 -2.91916e-05 0.0
0.24 0 0.0
0.242837 2.1558e-06 0.0
0.248515 -1.18187e-05 0.0
0 0 0.0
0.0622235 -6.92692e-06 0.0
0.0322306 -4.26518e-06 0.0
0.16 0 0.0
0.1875 0 0.0
0.21 0 0.0
0.2275 0 0.0
0.193596 1.36639e-05 0.0
0.13889 1.86491e-07 0.0
0 0 0.0
0.0475 0 0.0
0.099843 -2.22249e-06 0.0
0.0622212 1.54504e-06 0.0
0.0998472 -1.14092e-05 0.0
0.138892 -1.89445e-05 0.0
0.174388 -6.26385e-05 0.0
0.201611 -9.71203e-05 0.0
0.235776 -9.89727e-05 0.0
0.244068 -8.34715e-05 0.0
0.223594 -0.000162994 0.0
0.249728 -4.92283e-05 0.0
0.24902 -2.32818e-05 0.0
0.231402 1.14288e-05 0.0
0.244067 7.25037e-06 0.0
0 0 0.0
0.0360959 1.03447e-05 0.0
0.0736065 3.27014e-06 0.0
0.0622151 5.0963e-05 0.0
0.174382 1.65811e-05 0.0
0.220163 3.16031e-05 0.0
0.201606 3.60873e-05 0.0
0.115558 -8.07765e-06 0.0
0.146694 3.68971e-06 0.0
0 0 0.0
0.0360938 -1.75979e-06 0.0
0.0693688 -8.84435e-06 0.0
0.089996 -3.42754e-05 0.0
0.109401 -9.07204e-06 0.0
0.146703 -4.607e-05 0.0
0.178929 -0.000120045 0.0
0.206304 -0.000176536 0.0
0.214503 -0.00025915 0.0
0.238493 -0.000162091 0.0
0.2473 -0.000115772 0.0
0.229566 -0.000266691 0.0
0.226318 6.92259e-05 0.0
0.24993 -5.30519e-05 0.0
0.246384 4.13249e-06 0.0
0.236659 4.62902e-05 0.0
0 0 0.0
0.032155 4.5292e-05 0.0
0.0957153 5.59128e-05 0.0
0.0693391 0.000160413 0.0
0.178913 4.28443e-05 0.0
0.206288 7.91073e-05 0.0
0.127539 -3.07093e-05 0.0
0.16597 5.38162e-05 0.0
0.152382 1.33647e-05 0.0
0 0 0.0
0.0360773 -1.68865e-05 0.0
0.0621822 -7.08999e-05 0.0
0.0956759 -9.83792e-05 0.0
0.12757 -2.56341e-05 0.0
0.156726 -0.000112906 0.0
0.115702 4.31708e-05 0.0
0.193695 -0.000297765 0.0
0.218127 -0.000394536 0.0
0.240863 -0.000226709 0.0
0.247638 -0.000162274 0.0
0.249894 -8.12056e-05 0.0
0.23429 -0.000393114 0.0
0.229552 0.000118093 0.0
0.247634 8.5918e-07 0.0
0.240852 7.32186e-05 0.0
0 0 0.0
0.0342192 8.9396e-05 0.0
0.103249 0.00013797 0.0
0.0620588 0.000200949 0.0
0.189802 0.000118396 0.0
0.213024 0.000207805 0.0
0.170721 0.000128888 0.0
0.144523 -2.2222e-06 0.0
0 0 0.0
0.0398187 -7.39768e-05 0.0
0.0999201 -0.000186983 0.0
0.0692747 -0.000192321 0.0
0.170781 -0.000252579 0.0
0.144578 -9.53004e-05 0.0
0.124699 1.16232e-05 0.0
0.183827 -0.000412468 0.0
0.204202 -0.000535104 0.0
0.221969 -0.000602685 0.0
0.248912 -2.50226e-05 0.0
0.243857 -0.000307282 0.0
0.248918 -0.000186978 0.0
0.238306 -0.000537396 0.0
0.234263 0.000198999 0.0
0.244688 0.000110272 0.0
0 0 0.0
0.0318011 8.62638e-05 0.0
0.0942218 0.000172053 0.0
0.0649255 0.000128891 0.0
0.196848 0.000301584 0.0
0.217876 0.000374446 0.0
0.177817 0.000368637 0.0
0.149072 6.7925e-05 0.0
0.120639 -0.000132519 0.0
0 0 0.0
0.0341644 -9.93066e-05 0.0
0.0715704 -0.000255997 0.0
0.152816 -0.000271826 0.0
0.128201 -0.000161456 0.0
0.187841 -0.000663814 0.0
0.211966 -0.00085464 0.0
0.24826 3.78807e-05 0.0
0.225495 -0.000879336 0.0
0.249419 -0.000192862 0.0
0.246143 -0.000376304 0.0
0.24159 -0.000684971 0.0
0.238273 0.000287247 0.0
0 0 0.0
0.0332518 2.9494e-05 0.0
0.100433 -0.000161886 0.0
0.0695174 -0.000268714 0.0
0.206402 0.000580716 0.0
0.222324 0.000612987 0.0
0.190431 0.000840217 0.0
0.168948 0.000587663 0.0
0.14379 0.000256138 0.0
0.124772 -4.44171e-05 0.0
0.0973927 -0.00021079 0.0
0 0 0.0
0.0355898 -0.000116946 0.0
0.0671752 -0.000144952 0.0
0.131248 -0.000614113 0.0
0.169079 -0.000770303 0.0
0.199674 -0.00108998 0.0
0.21824 -0.00119758 0.0
0.241549 0.000375036 0.0
0.249402 -0.000149393 0.0
0.247431 0.000132632 0.0
0.22866 -0.00122676 0.0
0.244103 -0.000809477 0.0
0.248064 -0.000415497 0.0
0.234066 0.000668588 0.0
0 0 0.0
0.0358257 -0.000141244 0.0
0.123821 -0.00129502 0.0
0.0718766 -0.000924726 0.0
0.208481 0.000982157 0.0
0.224839 0.00105109 0.0
0.198434 0.00137851 0.0
0.17853 0.00114861 0.0
0.14765 0.000762016 0.0
0.120081 0.000352149 0.0
0.0975181 -2.96595e-05 0.0
0 0 0.0
0.0344079 -3.69287e-05 0.0
0.0672905 0.000121028 0.0
0.153407 -0.00138761 0.0
0.178696 -0.0014421 0.0
0.210088 -0.00158333 0.0
0.244066 0.000455298 0.0
0.248488 3.02381e-05 0.0
0.231417 -0.00163605 0.0
0.242987 -0.0011131 0.0
0.248455 -0.000169826 0.0
0.248054 -0.000483405 0.0
0.235178 0.00101318 0.0
0.212635 -0.0025083 0.0
0 0 0.0
0.0374754 -0.000399044 0.0
0.142508 -0.00244128 0.0
0.101814 -0.00252722 0.0
0.0683842 -0.0015079 0.0
0.213556 0.00152336 0.0
0.187342 0.00191427 0.0
0.166305 0.00170088 0.0
0.123595 0.00117898 0.0
0.0936714 0.000616464 0.0
0 0 0.0
0.0345478 0.000100054 0.0
0.0648594 0.000672557 0.0
0.166695 -0.00242273 0.0
0.187549 -0.00232594 0.0
0.159368 -0.00373196 0.0
0.245783 0.000475982 0.0
0.246665 0.00036063 0.0
0.229866 -0.00226655 0.0
0.238885 -0.00177848 0.0
0.246723 -0.000829653 0.0
0.238946 0.00113338 0.0
0.228278 0.00187824 0.0
0.199228 -0.00326252 0.0
0.217646 -0.00328815 0.0
0 0 0.0
0.0361171 -0.00059811 0.0
0.128265 -0.00442616 0.0
0.0714766 -0.0022128 0.0
0.101988 -0.00388155 0.0
0.207972 0.00264015 0.0
0.190376 0.00282865 0.0
0.169387 0.0028647 0.0
0.142244 0.00223832 0.0
0.096939 0.00163556 0.0
0 0 0.0
0.0335452 0.000294848 0.0
0.0680559 0.00144956 0.0
0.183742 -0.00422538 0.0
0.160377 -0.00531798 0.0
0.242751 0.00110949 0.0
0.246684 0.000131153 0.0
0.233825 -0.00274029 0.0
0.24218 -0.00183035 0.0
0.246421 -0.000838607 0.0
0.236492 0.00197665 0.0
0.217335 0.00331559 0.0
0.202519 -0.00461565 0.0
0.221507 -0.00403145 0.0
0 0 0.0
0.051816 -0.00147008 0.0
0.130652 -0.00641366 0.0
0.0957516 -0.00458639 0.0
0.202378 0.00382957 0.0
0.178821 0.00425171 0.0
0.149642 0.00438556 0.0
0.120825 0.0031623 0.0
0.0817608 0.00273465 0.0
0 0 0.0
0.0358168 0.000559929 0.0
0.187527 -0.00617669 0.0
0.161242 -0.00716334 0.0
0.243178 0.00124681 0.0
0.245844 -0.000280561 0.0
0.23666 -0.00313068 0.0
0.242907 -0.00195181 0.0
0.236497 0.00257067 0.0
0.224863 0.00381078 0.0
0.208484 0.00489332 0.0
0.22467 -0.00477724 0.0
0.208485 -0.00587312 0.0
0 0 0.0
0.0549632 -0.00182892 0.0
0.132045 -0.00853493 0.0
0.0987315 -0.00568227 0.0
0.187188 0.00576678 0.0
0.160892 0.00636891 0.0
0.0513906 0.00141924 0.0
0.130189 0.00615045 0.0
0.0949007 0.00430514 0.0
0 0 0.0
0.18665 -0.00847002 0.0
0.161031 -0.00963691 0.0
0.242629 0.00137957 0.0
0.244132 -0.00033472 0.0
0.235132 -0.00403758 0.0
0.241001 -0.0024823 0.0
0.223481 0.00513919 0.0
0.234948 0.00342258 0.0
0.186206 0.00803238 0.0
0.207274 0.00667866 0.0
0.223467 -0.0059908 0.0
0.207195 -0.00781089 0.0
0 0 0.0
0.0587479 -0.00209862 0.0
0.134151 -0.0103963 0.0
0.10343 -0.00676691 0.0
0.131499 0.0082574 0.0
0.160578 0.00880233 0.0
0.0542768 0.00178046 0.0
0.0981493 0.00554395 0.0
0 0 0.0
0.185461 -0.010986 0.0
0.161061 -0.0120801 0.0
0.240707 0.00184431 0.0
0.241965 -0.000367897 0.0
0.221899 -0.00736863 0.0
0.232181 -0.0056395 0.0
0.238651 -0.00308149 0.0
0.221927 0.00642796 0.0
0.232888 0.00443918 0.0
0.18524 0.00986759 0.0
0.205562 0.00874956 0.0
0.205444 -0.0100121 0.0
0 0 0.0
0.0629066 -0.00230324 0.0
0.137655 -0.0119552 0.0
0.10843 -0.00733631 0.0
0.13309 0.00983767 0.0
0.160398 0.0112057 0.0
0.0579937 0.00204367 0.0
0.102176 0.00649907 0.0
0 0 0.0
0.161591 -0.0141584 0.0
0.183922 -0.0140641 0.0
0.238239 0.00237133 0.0
0.239193 -0.000421116 0.0
0.229923 -0.00667563 0.0
0.218544 -0.00987218 0.0
0.235657 -0.00376528 0.0
0.230254 0.00561161 0.0
0.220025 0.00784503 0.0
0.183913 0.0123255 0.0
0.203434 0.0109763 0.0
0.203283 -0.0123115 0.0
0 0 0.0
0.0667879 -0.00228771 0.0
0.140945 -0.0125407 0.0
0.113928 -0.00744117 0.0
0.135836 0.0112781 0.0
0.160717 0.0133327 0.0
0 0 0.0
0.107035 0.00704329 0.0
0.061709 0.00217074 0.0
0.182883 -0.0160635 0.0
0.162853 -0.0156286 0.0
0.216025 -0.0113921 0.0
0.235171 0.00296542 0.0
0.235809 -0.000473383 0.0
0.232893 -0.00432217 0.0
0.227363 -0.00772369 0.0
0.227012 0.00683949 0.0
0.217208 0.00963951 0.0
0.182346 0.0149952 0.0
0.20101 0.0130956 0.0
0.200928 -0.0144297 0.0
0 0 0.0
0.0709734 -0.00209932 0.0
0.118984 -0.00716127 0.0
0.145396 -0.0125693 0.0
0.139992 0.0121352 0.0
0.161689 0.0148459 0.0
0 0 0.0
0.0659559 0.00217282 0.0
0.111749 0.00719005 0.0
0.182439 -0.0170413 0.0
0.164889 -0.0161792 0.0
0.213323 -0.0127246 0.0
0.221965 -0.00940956 0.0
0.231443 0.00355659 0.0
0.231752 -0.000535923 0.0
0.229759 -0.00485828 0.0
0.223211 0.00797493 0.0
0.213956 0.011295 0.0
0.181726 0.0160594 0.0
0.198562 0.0147539 0.0
0.198622 -0.015985 0.0
0 0 0.0
0.0747199 -0.00182128 0.0
0.151231 -0.0116834 0.0
0.125093 -0.0063683 0.0
0.143664 0.0121462 0.0
0.163427 0.0155352 0.0
0.0697036 0.0020461 0.0
0 0 0.0
0.117729 0.00685963 0.0
0.167612 -0.0158024 0.0
0.182437 -0.0174782 0.0
0.208664 -0.0140953 0.0
0.217689 -0.0102102 0.0
0.225251 -0.00540963 0.0
0.22498 0.00424994 0.0
0.227114 -0.000608316 0.0
0.218976 0.00879391 0.0
0.209183 0.0128209 0.0
0.181361 0.0166861 0.0
0.196309 0.015624 0.0
0.196572 -0.0166904 0.0
0 0 0.0
0.0780632 -0.00153615 0.0
0.130069 -0.00548182 0.0
0.170812 -0.0145793 0.0
0.155459 -0.0106079 0.0
0.148398 0.0114715 0.0
0.16535 0.0153892 0.0
0.0732437 0.00176165 0.0
0 0 0.0
0.122553 0.00625235 0.0
0.195197 -0.0165455 0.0
0.182979 -0.0169848 0.0
0.214197 -0.0104206 0.0
0.205443 -0.014164 0.0
0.218108 -0.00580579 0.0
0.22207 -0.000692712 0.0
0.22123 0.00440462 0.0
0.214563 0.00910931 0.0
0.206363 0.0130611 0.0
0.181665 0.0162746 0.0
0.168894 0.0140592 0.0
0.194465 0.0155084 0.0
0 0 0.0
0.134043 -0.00453377 0.0
0.0807335 -0.00127753 0.0
0.173609 -0.0131162 0.0
0.160947 -0.00876443 0.0
0.153248 0.0101952 0.0
0 0 0.0
0.0762911 0.00142444 0.0
0.127897 0.00520994 0.0
0.194198 -0.0156878 0.0
0.184313 -0.0150735 0.0
0.210833 -0.0102923 0.0
0.202546 -0.013417 0.0
0.214402 -0.00574416 0.0
0.216941 -0.000780722 0.0
0.217384 0.00436072 0.0
0.171461 0.0126198 0.0
0.193304 0.0146215 0.0
0.210276 0.00878925 0.0
0.203726 0.0127084 0.0
0.182473 0.0148927 0.0
0 0 0.0
0.0826423 -0.000991267 0.0
0.137722 -0.00355988 0.0
0.176959 -0.0110291 0.0
0.165194 -0.00706166 0.0
0.131984 0.00413609 0.0
0.158495 0.00829299 0.0
0 0 0.0
0.0789549 0.00106477 0.0
0.193502 -0.0139833 0.0
0.185844 -0.0129279 0.0
0.206949 -0.00958816 0.0
0.20019 -0.0120458 0.0
0.210768 -0.00552517 0.0
0.211969 -0.000909005 0.0
0.210404 0.00373482 0.0
0.174615 0.0103874 0.0
0.206298 0.00785802 0.0
0.192482 0.0131396 0.0
0.199977 0.0109598 0.0
0.183988 0.0121792 0.0
0 0 0.0
0.140825 -0.00260238 0.0
0.0843779 -0.000692662 0.0
0.180579 -0.00844238 0.0
0.168712 -0.00548296 0.0
0.13505 0.00315164 0.0
0.162561 0.00647768 0.0
0 0 0.0
0.0806085 0.000843895 0.0
0.187383 -0.0106095 0.0
0.193165 -0.0118774 0.0
0.203619 -0.00850166 0.0
0.206623 -0.00504648 0.0
0.198346 -0.0102934 0.0
0.207543 -0.00104716 0.0
0.206272 0.0029657 0.0
0.20289 0.00651099 0.0
0.204645 -0.00294279 0.0
0.177582 0.00804632 0.0
0.197879 0.00902178 0.0
0.191818 0.0101428 0.0
0.185042 0.0102864 0.0
0 0 0.0
0.142816 -0.00198351 0.0
0.085568 -0.000545452 0.0
0.182741 -0.00690145 0.0
0.171558 -0.00414596 0.0
0.137644 0.00217782 0.0
0.165444 0.00497567 0.0
0 0 0.0
0.0819055 0.000542608 0.0
0.188871 -0.00841526 0.0
0.193162 -0.0096971 0.0
0.200904 -0.0072674 0.0
0.197003 -0.00849834 0.0
0.201843 -0.004249 0.0
0.204337 0.000592578 0.0
0.202268 0.0038599 0.0
0.1987 0.00641761 0.0
0.202227 -0.00133405 0.0
0.180044 0.00580551 0.0
0.194136 0.00785251 0.0
0.190394 0.00787181 0.0
0.186646 0.00712389 0.0
0 0 0.0
0.144467 -0.00148548 0.0
0.0864183 -0.000403724 0.0
0.184919 -0.00528258 0.0
0.173776 -0.00312568 0.0
0.168456 0.00318675 0.0
0.139498 0.00135923 0.0
0 0 0.0
0.0828718 0.00027674 0.0
0.190197 -0.00655775 0.0
0.19331 -0.00772263 0.0
0.199401 -0.00376079 0.0
0.196075 -0.00688438 0.0
0.198844 -0.00606971 0.0
0.201135 0.00154887 0.0
0.198744 0.00395322 0.0
0.195413 0.00552744 0.0
0.19959 -0.00155541 0.0
0.182037 0.00387729 0.0
0.191601 0.00601528 0.0
0.187765 0.00487001 0.0
0 0 0.0
0.0869757 -0.000332881 0.0
0.145746 -0.00115265 0.0
0.175241 -0.00250321 0.0
0.191304 -0.00512777 0.0
0.186679 -0.00406872 0.0
0.17032 0.00192023 0.0
0.1407 0.000740471 0.0
0.0832207 0.000146971 0.0
0 0 0.0
0.195563 -0.00579168 0.0
0.193578 -0.00612716 0.0
0.197974 -0.00347955 0.0
0.197331 -0.00508581 0.0
0.194412 0.0035829 0.0
0.198704 0.000622574 0.0
0.196885 0.00242864 0.0
0.197642 -0.00181563 0.0
0.18861 0.0029762 0.0
0.183684 0.0020167 0.0
0.191583 0.00334678 0.0
0 0 0.0
0.0875872 -0.000283355 0.0
0.146777 -0.000967203 0.0
0.176584 -0.00200663 0.0
0.192047 -0.00434191 0.0
0.188327 -0.00314102 0.0
0.171516 0.000950512 0.0
0.141448 0.000225173 0.0
0.083392 1.73587e-05 0.0
0 0 0.0
0.172324 0.000212794 0.0
0.195224 -0.00494479 0.0
0.193962 -0.00469243 0.0
0.195948 -0.00416017 0.0
0.196864 -0.00329273 0.0
0.193486 0.00141511 0.0
0.195525 0.00109019 0.0
0.19691 -0.000226249 0.0
0.196232 -0.00211235 0.0
0.189238 0.00146882 0.0
0.184637 0.000856464 0.0
0.191602 0.00170685 0.0
0 0 0.0
0.0880974 -0.000258015 0.0
0.147598 -0.00091554 0.0
0.177648 -0.00178238 0.0
0.192848 -0.00364793 0.0
0.189384 -0.00273088 0.0
0.0832709 -7.75196e-05 0.0
0.14174 -0.000116005 0.0
0 0 0.0
0.172607 -0.000251731 0.0
0.195008 -0.00427987 0.0
0.194294 -0.00405384 0.0
0.19537 -0.00383585 0.0
0.195828 -0.00321123 0.0
0.193077 0.000361859 0.0
0.19453 -3.70589e-05 0.0
0.195245 -0.00246044 0.0
0.195135 -0.00130125 0.0
0.18951 0.000572065 0.0
0.185152 -1.67674e-05 0.0
0.191565 0.000412158 0.0
0 0 0.0
0.0886529 -0.00028492 0.0
0.148301 -0.000960508 0.0
0.17864 -0.00173116 0.0
0.193666 -0.00325969 0.0
0.194611 -0.00376432 0.0
0.190239 -0.00259605 0.0
0.083174 -0.00015595 0.0
0.141701 -0.000363203 0.0
0 0 0.0
0.172725 -0.000666532 0.0
0.19491 -0.00388307 0.0
0.195064 -0.00376314 0.0
0.195124 -0.00329514 0.0
0.194697 -0.00275613 0.0
0.192738 -0.000520347 0.0
0.193798 -0.000983056 0.0
0.194335 -0.00195571 0.0
0.185435 -0.000682451 0.0
0.189716 -0.000378748 0.0
0.191473 -0.000601307 0.0
0 0 0.0
0.0891955 -0.000371496 0.0
0.149104 -0.00107651 0.0
0.17947 -0.00186947 0.0
0.194121 -0.00325252 0.0
0.194923 -0.00374585 0.0
0.191004 -0.00266483 0.0
0.0828971 -0.000222435 0.0
0.141509 -0.00054674 0.0
0 0 0.0
0.185389 -0.00109638 0.0
0.141109 -0.000680552 0.0
0.172527 -0.00102481 0.0
0.194959 -0.0039445 0.0
0.194861 -0.00381655 0.0
0.194493 -0.00367837 0.0
0.194285 -0.00307885 0.0
0.193862 -0.00243752 0.0
0.192384 -0.00140142 0.0
0.19306 -0.00208018 0.0
0.189716 -0.00126968 0.0
0.191355 -0.00130557 0.0
0.195042 -0.00414009 0.0
0 0 0.0
0.0898528 -0.000432813 0.0
0.180309 -0.0021198 0.0
0.149954 -0.00127336 0.0
0.195257 -0.00399143 0.0
0.194786 -0.00350449 0.0
0.191692 -0.00292205 0.0
0.0825651 -0.00025778 0.0
0 0 0.0
0.189635 -0.00170833 0.0
0.185272 -0.00152866 0.0
0.172264 -0.0012874 0.0
0.0819932 -0.000258824 0.0
0.140689 -0.000808895 0.0
0.194725 -0.00408998 0.0
0.194278 -0.0040048 0.0
0.193855 -0.00357323 0.0
0.193604 -0.00400049 0.0
0.193477 -0.00290813 0.0
0.192047 -0.00214913 0.0
0.192633 -0.00276824 0.0
0.191159 -0.00189449 0.0
0.195125 -0.00447641 0.0
0.090556 -0.000527384 0.0
0 0 0.0
0.181 -0.00241044 0.0
0.150878 -0.00151899 0.0
0.195579 -0.00443757 0.0
0.195189 -0.00381843 0.0
0.192409 -0.00333841 0.0
0 0 0.0
0.189374 -0.00221015 0.0
0.184856 -0.00196686 0.0
0.171804 -0.00147701 0.0
0.0815747 -0.000299671 0.0
0.140072 -0.000924762 0.0
0.194631 -0.00476362 0.0
0.194114 -0.00439925 0.0
0.193373 -0.00446381 0.0
0.192904 -0.00379156 0.0
0.191704 -0.00280831 0.0
0.192249 -0.0034236 0.0
0.190784 -0.00267898 0.0
0.19529 -0.00507489 0.0
0 0 0.0
0.0915687 -0.000630572 0.0
0.181922 -0.00287233 0.0
0.151885 -0.00181178 0.0
0.193114 -0.00390887 0.0
0.195927 -0.00508662 0.0
0.195854 -0.00454129 0.0
0 0 0.0
0 0 0.0
0.189006 -0.00267548 0.0
0.184466 -0.00231704 0.0
0.171294 -0.00169875 0.0
0.139388 -0.00104021 0.0
0.0810289 -0.000352361 0.0
0.194604 -0.00544347 0.0
0.193922 -0.00504036 0.0
0.191937 -0.00394354 0.0
0.19309 -0.00516174 0.0
0.192535 -0.00446433 0.0
0.191324 -0.00343646 0.0
0.190388 -0.00323078 0.0
0.194578 -0.00611276 0.0
0.19542 -0.00585831 0.0
0.0928053 -0.000769061 0.0
0.153146 -0.00218426 0.0
0.183011 -0.00347139 0.0
0.193804 -0.00449382 0.0
0.196283 -0.00591685 0.0
0.196277 -0.00516452 0.0
0 0 0.0
0 0 0.0
0.183951 -0.00257908 0.0
0.188379 -0.00322456 0.0
0.138639 -0.00114409 0.0
0.170474 -0.00195176 0.0
0.0803844 -0.00038695 0.0
0.193674 -0.00616789 0.0
0.192775 -0.0059711 0.0
0.189926 -0.00377778 0.0
0.1916 -0.00447491 0.0
0.192247 -0.00502618 0.0
0.190724 -0.00427412 0.0
0.194546 -0.00685879 0.0
0.195635 -0.00721976 0.0
0.196633 -0.00697774 0.0
0.0942557 -0.000990232 0.0
0.154764 -0.00268542 0.0
0.184404 -0.00439465 0.0
0.19466 -0.00536156 0.0
0.197022 -0.0064138 0.0
0 0 0.0
0 0 0.0
0.183149 -0.00298166 0.0
0.187793 -0.00368442 0.0
0.137726 -0.00127891 0.0
0.169651 -0.00218071 0.0
0.0796759 -0.000418486 0.0
0.191933 -0.00562811 0.0
0.192417 -0.00687184 0.0
0.193425 -0.0071557 0.0
0.189365 -0.00433125 0.0
0.191144 -0.00518495 0.0
0.190194 -0.00493742 0.0
0.187095 -0.00415713 0.0
0.194391 -0.00846902 0.0
0 0 0.0
0.195691 -0.00851753 0.0
0.197669 -0.00768691 0.0
0.196958 -0.0082419 0.0
0.0959958 -0.00122894 0.0
0.185742 -0.00524428 0.0
0.156933 -0.00345725 0.0
0.195848 -0.00679332 0.0
0 0 0.0
0 0 0.0
0 0 0.0
0 0 0.0
0 0 0.0
0.0789635 -0.000449681 0.0
0.168789 -0.00242335 0.0
0.182376 -0.00333725 0.0
0.136884 -0.00138835 0.0
0.191465 -0.00646034 0.0
0.191968 -0.0079013 0.0
0.193133 -0.00828267 0.0
0.189679 -0.00548936 0.0
0.188687 -0.00491256 0.0
0.190362 -0.00626496 0.0
0.188042 -0.00542772 0.0
0.186451 -0.00451648 0.0
0.194143 -0.00988265 0.0
0.1957 -0.00998205 0.0
0 0 0.0
-0.00046744 0.000267905 0.0
0 0 0.0
-0.000780084 0.00859772 0.0
0.197262 -0.00981009 0.0
0.198173 -0.00883174 0.0
0.0983757 -0.00157909 0.0
0.187435 -0.00645177 0.0
0.159352 -0.00439125 0.0
0.197022 -0.00835164 0.0
0 0 0.0
0 0 0.0
0 0 0.0
-0.000650844 0.00633505 0.0
-0.00051945 0.00164337 0.0
-0.00141827 0.00147298 0.0
0 0 0.0
0.0781224 -0.000488377 0.0
0.167883 -0.00262417 0.0
0.181449 -0.00370496 0.0
0.135665 -0.00152791 0.0
0.190916 -0.0073943 0.0
0.191405 -0.00905334 0.0
0.192715 -0.00955865 0.0
0.189089 -0.00608363 0.0
0.189823 -0.00695344 0.0
0.187287 -0.00595571 0.0
0.185258 -0.00514722 0.0
0.193788 -0.0114734 0.0
0.195145 -0.0115689 0.0
0.196546 -0.0114716 0.0
0 0 0.0
-0.00168491 0.000566117 0.0
0 0 0.0
0 0 0.0
-0.00260455 0.014635 0.0
-0.00267623 0.0115041 0.0
0.197846 -0.0112725 0.0
0.198808 -0.0107037 0.0
0.161965 -0.00548231 0.0
0.101154 -0.00206337 0.0
0.189447 -0.00805114 0.0
0.198205 -0.0103024 0.0
0 0 0.0
-0.00181416 0.00534791 0.0
-0.00226011 0.00827523 0.0
-0.00224391 0.00358996 0.0
-0.0035838 0.00229116 0.0
0 0 0.0
0.0772293 -0.000528379 0.0
0.166746 -0.00286885 0.0
0.180373 -0.00407342 0.0
0.134475 -0.00165837 0.0
0.190239 -0.00841377 0.0
0.190696 -0.0103157 0.0
0.192144 -0.0110003 0.0
0.187962 -0.00712389 0.0
0.1892 -0.00766654 0.0
0.186274 -0.00661698 0.0
0.179263 -0.00446956 0.0
0.184184 -0.00567578 0.0
0.193351 -0.0129016 0.0
0.195392 -0.0130757 0.0
0.197521 -0.0132571 0.0
0 0 0.0
-0.00383601 0.000786306 0.0
0 0 0.0
0 0 0.0
0 0 0.0
0 0 0.0
-0.00510938 0.0107919 0.0
-0.000879404 0.0128797 0.0
-0.0027425 0.0173581 0.0
-0.00576199 0.0188133 0.0
-0.00497107 0.0149049 0.0
0 0 0.0
-0.000471025 0.0199858 0.0
0.199471 -0.0136675 0.0
0.199243 -0.0122337 0.0
0 0 0.0
0.105167 -0.00283929 0.0
0.165591 -0.00700137 0.0
0.192217 -0.0107123 0.0
0 0 0.0
0 0 0.0
-0.00437841 0.00744853 0.0
-0.0050049 0.00483573 0.0
-0.00635908 0.00264249 0.0
0 0 0.0
0.0762037 -0.000569901 0.0
0.165297 -0.00315857 0.0
0.133138 -0.00178719 0.0
0.178159 -0.00476581 0.0
0.189416 -0.00952251 0.0
0.19004 -0.0113424 0.0
0.19139 -0.0126185 0.0
0.187119 -0.00779119 0.0
0.188291 -0.00861792 0.0
0.185124 -0.00729229 0.0
0.183223 -0.00606435 0.0
0.196258 -0.0146891 0.0
0.192755 -0.0144734 0.0
0.194726 -0.0161253 0.0
0.197329 -0.0165928 0.0
0.199838 -0.0167645 0.0
0 0 0.0
-0.00549661 0.000755469 0.0
-0.000718007 0.0194867 0.0
-0.00290502 0.0282538 0.0
-0.00095875 0.0156577 0.0
-0.00742174 0.0128347 0.0
-0.00961274 0.00962234 0.0