# vtk DataFile Version 3.0
Mesh NS-CD Problem
ASCII
DATASET UNSTRUCTURED_GRID
POINTS 10839 float
-2 0.3 0.0
-2 0.4 0.0
-2 0.35 0.0
-2 0.45 0.0
-2 0.5 0.0
-2 0.55 0.0
-2 0 0.0
-2 0.05 0.0
-2 0.85 0.0
-2 0.9 0.0
-2 0.1 0.0
-2 0.15 0.0
-2 0.25 0.0
-2 0.2 0.0
-1.96653 0.266667 0.0
-1.96524 0.415385 0.0
-1.96485 0.315 0.0
-1.96348 0.363636 0.0
-1.96414 0.464286 0.0
-2 0.6 0.0
-1.96538 0.584615 0.0
-1.96538 0.538462 0.0
-1.94979 0 0.0
-1.96653 0.0666666 0.0
-1.93306 0.0333333 0.0
-2 0.8 0.0
-2 0.75 0.0
-2 0.7 0.0
-2 0.65 0.0
-1.96249 0.7375 0.0
-1.96666 0.833333 0.0
-2 1 0.0
-2 0.95 0.0
-1.96249 0.8875 0.0
-1.96666 0.933333 0.0
-1.96234 0.1125 0.0
-1.96653 0.166667 0.0
-1.93724 0.225 0.0
-1.92971 0.28 0.0
-1.93048 0.380769 0.0
-1.93048 0.423077 0.0
-1.89958 0.3375 0.0
-1.9292 0.484203 0.0
-1.92117 0.530907 0.0
-1.96363 0.636364 0.0
-1.93076 0.576923 0.0
-1.89958 0 0.0
-1.88703 0.0375 0.0
-1.90963 0.08 0.0
-1.86611 0.0666666 0.0
-1.93749 0.775 0.0
-1.93635 0.672727 0.0
-1.92999 0.72 0.0
-1.93332 0.866667 0.0
-1.92856 0.821429 0.0
-1.94999 1 0.0
-1.92499 0.9625 0.0
-1.92499 0.925 0.0
-1.89998 0.9 0.0
-1.89958 0.125 0.0
-1.92827 0.178571 0.0
-1.89958 0.233333 0.0
-1.89045 0.290909 0.0
-1.86096 0.311538 0.0
-1.89241 0.392857 0.0
-1.89334 0.448489 0.0
-1.85655 0.357143 0.0
-1.89614 0.653846 0.0
-1.89427 0.504121 0.0
-1.8952 0.559753 0.0
-1.89614 0.615385 0.0
-1.84937 0 0.0
-1.83264 0.0333333 0.0
-1.85655 0.107143 0.0
-1.81172 0.075 0.0
-1.89998 0.766667 0.0
-1.89089 0.709091 0.0
-1.87498 0.85 0.0
-1.85998 0.79 0.0
-1.88748 0.8125 0.0
-1.89998 1 0.0
-1.88748 0.9625 0.0
-1.86664 0.933333 0.0
-1.85712 0.892857 0.0
-1.87448 0.15 0.0
-1.86611 0.194444 0.0
-1.83264 0.133333 0.0
-1.83264 0.2625 0.0
-1.82068 0.321429 0.0
-1.85664 0.404762 0.0
-1.85674 0.452381 0.0
-1.85683 0.5 0.0
-1.81184 0.375 0.0
-1.85712 0.642857 0.0
-1.85693 0.547619 0.0
-1.85702 0.595238 0.0
-1.79917 0 0.0
-1.78482 0.0357143 0.0
-1.79917 0.116667 0.0
-1.76569 0.0666666 0.0
-1.85452 0.745455 0.0
-1.82689 0.692308 0.0
-1.81815 0.781818 0.0
-1.82497 0.825 0.0
-1.84997 1 0.0
-1.8333 0.958333 0.0
-1.81247 0.8875 0.0
-1.81247 0.925 0.0
-1.81742 0.218182 0.0
-1.82427 0.175 0.0
-1.77634 0.145455 0.0
-1.79144 0.242308 0.0
-1.78482 0.285714 0.0
-1.77469 0.332653 0.0
-1.81215 0.529762 0.0
-1.81194 0.422619 0.0
-1.81203 0.470238 0.0
-1.76714 0.392857 0.0
-1.81234 0.625 0.0
-1.79732 0.571429 0.0
-1.74896 0 0.0
-1.73222 0.0333333 0.0
-1.75398 0.105 0.0
-1.71883 0.07 0.0
-1.79227 0.730769 0.0
-1.78007 0.679121 0.0
-1.75765 0.769231 0.0
-1.78178 0.818182 0.0
-1.78996 0.86 0.0
-1.79996 1 0.0
-1.78568 0.964286 0.0
-1.76663 0.922222 0.0
-1.76569 0.1875 0.0
-1.73222 0.15 0.0
-1.74896 0.25 0.0
-1.73714 0.304762 0.0
-1.76743 0.537202 0.0
-1.72869 0.343878 0.0
-1.76732 0.485119 0.0
-1.76723 0.440476 0.0
-1.72243 0.410714 0.0
-1.76757 0.607143 0.0
-1.69875 0 0.0
-1.68369 0.035 0.0
-1.69875 0.1125 0.0
-1.66528 0.075 0.0
-1.74341 0.708974 0.0
-1.73324 0.665934 0.0
-1.70441 0.74478 0.0
-1.71423 0.785714 0.0
-1.72303 0.826923 0.0
-1.74541 0.854545 0.0
-1.74541 0.890909 0.0
-1.74996 1 0.0
-1.73745 0.9625 0.0
-1.71359 0.927273 0.0
-1.68716 0.153846 0.0
-1.7131 0.214286 0.0
-1.70725 0.275 0.0
-1.69712 0.321939 0.0
-1.72279 0.589286 0.0
-1.72261 0.5 0.0
-1.7227 0.544643 0.0
-1.6827 0.355102 0.0
-1.67773 0.428571 0.0
-1.70763 0.464286 0.0
-1.70369 0.62449 0.0
-1.64854 0 0.0
-1.63181 0.0375 0.0
-1.64137 0.142857 0.0
-1.61764 0.0769231 0.0
-1.69458 0.703846 0.0
-1.67471 0.657437 0.0
-1.66143 0.727637 0.0
-1.67125 0.768571 0.0
-1.67851 0.821429 0.0
-1.68841 0.861538 0.0
-1.70904 0.890909 0.0
-1.69995 1 0.0
-1.68176 0.963636 0.0
-1.67267 0.927273 0.0
-1.65427 0.187143 0.0
-1.66718 0.231429 0.0
-1.66554 0.3 0.0
-1.67802 0.571429 0.0
-1.67792 0.523809 0.0
-1.6367 0.366327 0.0
-1.63682 0.423469 0.0
-1.62568 0.502976 0.0
-1.6629 0.470238 0.0
-1.65254 0.618367 0.0
-1.6059 0.307143 0.0
-1.59833 0 0.0
-1.58288 0.0384615 0.0
-1.60563 0.169643 0.0
-1.58179 0.112271 0.0
-1.56964 0.0714286 0.0
-1.64574 0.690385 0.0
-1.62827 0.751429 0.0
-1.63371 0.791071 0.0
-1.64279 0.857143 0.0
-1.65378 0.896154 0.0
-1.64994 1 0.0
-1.6363 0.963636 0.0
-1.61916 0.930769 0.0
-1.61345 0.209107 0.0
-1.62126 0.248571 0.0
-1.56989 0.196429 0.0
-1.63324 0.553571 0.0
-1.58846 0.535714 0.0
-1.59408 0.361905 0.0
-1.59161 0.402211 0.0
-1.58832 0.464286 0.0
-1.61504 0.598581 0.0
-1.59683 0.64359 0.0
-1.57899 0.274107 0.0
-1.56176 0.322381 0.0
-1.54812 0 0.0
-1.53378 0.0357143 0.0
-1.54593 0.147619 0.0
-1.53385 0.0732143 0.0
-1.53393 0.110714 0.0
-1.58522 0.704286 0.0
-1.58709 0.745 0.0
-1.58896 0.785714 0.0
-1.60695 0.830357 0.0
-1.60707 0.892857 0.0
-1.59993 1 0.0
-1.58454 0.965385 0.0
-1.57135 0.928571 0.0
-1.55209 0.241071 0.0
-1.5291 0.198214 0.0
-1.56936 0.570918 0.0
-1.54369 0.517857 0.0
-1.5464 0.380952 0.0
-1.54564 0.427721 0.0
-1.54488 0.47449 0.0
-1.55026 0.606122 0.0
-1.54222 0.677143 0.0
-1.52943 0.282857 0.0
-1.52143 0.33619 0.0
-1.49792 0 0.0
-1.49802 0.05 0.0
-1.49822 0.15 0.0
-1.49312 0.1 0.0
-1.5423 0.717143 0.0
-1.54419 0.767857 0.0
-1.54727 0.819048 0.0
-1.57122 0.861905 0.0
-1.53553 0.914286 0.0
-1.54992 1 0.0
-1.53563 0.964286 0.0
-1.49842 0.25 0.0
-1.48831 0.2 0.0
-1.5214 0.558929 0.0
-1.49891 0.5 0.0
-1.49871 0.4 0.0
-1.47631 0.45 0.0
-1.49911 0.6 0.0
-1.49921 0.65 0.0
-1.49931 0.7 0.0
-1.48111 0.35 0.0
-1.48351 0.3 0.0
-1.44771 0 0.0
-1.44782 0.05 0.0
-1.44804 0.15 0.0
-1.44793 0.1 0.0
-1.49941 0.75 0.0
-1.49951 0.8 0.0
-1.49981 0.95 0.0
-1.49961 0.85 0.0
-1.49971 0.9 0.0
-1.49991 1 0.0
-1.44826 0.25 0.0
-1.43815 0.2 0.0
-1.47151 0.55 0.0
-1.44881 0.5 0.0
-1.44859 0.4 0.0
-1.42619 0.45 0.0
-1.44913 0.65 0.0
-1.44902 0.6 0.0
-1.44935 0.75 0.0
-1.44924 0.7 0.0
-1.43972 0.35 0.0
-1.43336 0.3 0.0
-1.3975 0 0.0
-1.39762 0.05 0.0
-1.39786 0.15 0.0
-1.39274 0.1 0.0
-1.44957 0.85 0.0
-1.44946 0.8 0.0
-1.4523 0.95 0.0
-1.44968 0.9 0.0
-1.4499 1 0.0
-1.3981 0.25 0.0
-1.38798 0.2 0.0
-1.42141 0.55 0.0
-1.3987 0.5 0.0
-1.39834 0.35 0.0
-1.37845 0.4 0.0
-1.37607 0.45 0.0
-1.40784 0.65 0.0
-1.39894 0.6 0.0
-1.41185 0.75 0.0
-1.39918 0.7 0.0
-1.38322 0.3 0.0
-1.34729 0 0.0
-1.34492 0.05 0.0
-1.34018 0.15 0.0
-1.34255 0.1 0.0
-1.40707 0.85 0.0
-1.39941 0.8 0.0
-1.39977 0.95 0.0
-1.39965 0.9 0.0
-1.39989 1 0.0
-1.33781 0.2 0.0
-1.33544 0.25 0.0
-1.37131 0.55 0.0
-1.34859 0.5 0.0
-1.33833 0.4 0.0
-1.3307 0.35 0.0
-1.32595 0.45 0.0
-1.34885 0.6 0.0
-1.36655 0.65 0.0
-1.36179 0.75 0.0
-1.34911 0.7 0.0
-1.33307 0.3 0.0
-1.29708 0 0.0
-1.29722 0.05 0.0
-1.2975 0.15 0.0
-1.29236 0.1 0.0
-1.35703 0.85 0.0
-1.34937 0.8 0.0
-1.34988 1 0.0
-1.34962 0.9 0.0
-1.35226 0.95 0.0
-1.28528 0.25 0.0
-1.28764 0.2 0.0
-1.28931 0.35 0.0
-1.32121 0.55 0.0
-1.29848 0.5 0.0
-1.28709 0.45 0.0
-1.2982 0.4 0.0
-1.29876 0.6 0.0
-1.31647 0.65 0.0
-1.29918 0.75 0.0
-1.29904 0.7 0.0
-1.28292 0.3 0.0
-1.24687 0 0.0
-1.24702 0.05 0.0
-1.24717 0.1 0.0
-1.24732 0.15 0.0
-1.29946 0.85 0.0
-1.29932 0.8 0.0
-1.29987 1 0.0
-1.29974 0.95 0.0
-1.30462 0.9 0.0
-1.24762 0.25 0.0
-1.23747 0.2 0.0
-1.24792 0.35 0.0
-1.22807 0.4 0.0
-1.27111 0.55 0.0
-1.24837 0.5 0.0
-1.24822 0.45 0.0
-1.24867 0.6 0.0
-1.26639 0.65 0.0
-1.26167 0.75 0.0
-1.24897 0.7 0.0
-1.23277 0.3 0.0
-1.19667 0 0.0
-1.19683 0.05 0.0
-1.18964 0.15 0.0
-1.19198 0.1 0.0
-1.25695 0.85 0.0
-1.24927 0.8 0.0
-1.25223 0.95 0.0
-1.24987 1 0.0
-1.24957 0.9 0.0
-1.1873 0.2 0.0
-1.18496 0.25 0.0
-1.18028 0.35 0.0
-1.17794 0.4 0.0
-1.1981 0.45 0.0
-1.19842 0.55 0.0
-1.19826 0.5 0.0
-1.19858 0.6 0.0
-1.19874 0.65 0.0
-1.19906 0.75 0.0
-1.1989 0.7 0.0
-1.18262 0.3 0.0
-1.14646 0 0.0
-1.14663 0.05 0.0
-1.1418 0.1 0.0
-1.13713 0.2 0.0
-1.14697 0.15 0.0
-1.20691 0.85 0.0
-1.20926 0.8 0.0
-1.20221 0.95 0.0
-1.19986 1 0.0
-1.20456 0.9 0.0
-1.13997 0.3 0.0
-1.14731 0.25 0.0
-1.13781 0.4 0.0
-1.13014 0.35 0.0
-1.12548 0.45 0.0
-1.14815 0.5 0.0
-1.15962 0.55 0.0
-1.14849 0.6 0.0
-1.15745 0.65 0.0
-1.16155 0.75 0.0
-1.14917 0.8 0.0
-1.14883 0.7 0.0
-1.09625 0 0.0
-1.09661 0.1 0.0
-1.09393 0.05 0.0
-1.09697 0.2 0.0
-1.08929 0.15 0.0
-1.15687 0.85 0.0
-1.14985 1 0.0
-1.15219 0.95 0.0
-1.14951 0.9 0.0
-1.09733 0.3 0.0
-1.08465 0.25 0.0
-1.09769 0.4 0.0
-1.08 0.35 0.0
-1.08661 0.45 0.0
-1.09804 0.5 0.0
-1.12082 0.55 0.0
-1.10916 0.8 0.0
-1.10629 0.7 0.0
-1.0984 0.6 0.0
-1.11616 0.65 0.0
-1.11149 0.75 0.0
-1.04604 0 0.0
-1.04623 0.05 0.0
-1.04642 0.1 0.0
-1.0468 0.2 0.0
-1.03911 0.15 0.0
-1.09948 0.9 0.0
-1.0993 0.85 0.0
-1.09984 1 0.0
-1.09966 0.95 0.0
-1.04718 0.3 0.0
-1.03449 0.25 0.0
-1.04756 0.4 0.0
-1.02986 0.35 0.0
-1.04775 0.45 0.0
-1.04794 0.5 0.0
-1.04813 0.55 0.0
-1.05911 0.8 0.0
-1.04831 0.6 0.0
-1.06376 0.7 0.0
-1.0485 0.65 0.0
-1.04888 0.75 0.0
-0.995833 0 0.0
-0.991231 0.1 0.0
-0.996033 0.05 0.0
-0.986629 0.2 0.0
-0.98893 0.15 0.0
-1.05447 0.9 0.0
-1.04926 0.85 0.0
-1.04983 1 0.0
-1.04964 0.95 0.0
-0.984328 0.25 0.0
-0.99703 0.3 0.0
-0.997429 0.4 0.0
-0.997628 0.45 0.0
-0.979726 0.35 0.0
-0.997827 0.5 0.0
-0.998027 0.55 0.0
-0.998226 0.6 0.0
-0.961416 0.475 0.0
-1.00907 0.8 0.0
-0.998426 0.65 0.0
-0.998625 0.7 0.0
-1.01138 0.75 0.0
-0.945625 0 0.0
-0.946044 0.1 0.0
-0.943334 0.05 0.0
-0.946463 0.2 0.0
-0.938752 0.15 0.0
-1.00444 0.9 0.0
-1.00675 0.85 0.0
-0.999821 1 0.0
-1.00213 0.95 0.0
-0.93417 0.25 0.0
-0.946881 0.3 0.0
-0.9473 0.4 0.0
-0.929588 0.35 0.0
-0.925005 0.45 0.0
-0.960371 0.525 0.0
-0.959325 0.575 0.0
-0.958279 0.625 0.0
-0.922714 0.5 0.0
-0.959017 0.8 0.0
-0.957233 0.675 0.0
-0.952999 0.7125 0.0
-0.948766 0.75 0.0
-0.895417 0 0.0
-0.895855 0.1 0.0
-0.893136 0.05 0.0
-0.896294 0.2 0.0
-0.888573 0.15 0.0
-0.949184 0.85 0.0
-0.954415 0.9 0.0
-0.949812 1 0.0
-0.949603 0.95 0.0
-0.884011 0.25 0.0
-0.896733 0.3 0.0
-0.874887 0.45 0.0
-0.879449 0.35 0.0
-0.897171 0.4 0.0
-0.920423 0.55 0.0
-0.918132 0.6 0.0
-0.915841 0.65 0.0
-0.872606 0.5 0.0
-0.908968 0.8 0.0
-0.91355 0.7 0.0
-0.898707 0.75 0.0
-0.845208 0 0.0
-0.845438 0.05 0.0
-0.845667 0.1 0.0
-0.845896 0.15 0.0
-0.833853 0.25 0.0
-0.846126 0.2 0.0
-0.899146 0.85 0.0
-0.904386 0.9 0.0
-0.899584 0.95 0.0
-0.899804 1 0.0
-0.838062 0.35 0.0
[...]
POINT_DATA 10839
VECTORS Velocity float
0.21 0 0.0
0.24 0 0.0
0.2275 0 0.0
0.2475 0 0.0
0.25 0 0.0
0.2475 0 0.0
0 0 0.0
0.0475 0 0.0
0.1275 0 0.0
0.09 0 0.0
0.09 0 0.0
0.1275 0 0.0
0.1875 0 0.0
0.16 0 0.0
0.195557 -2.40126e-05 0.0
0.242841 -3.27898e-05 0.0
0.215776 -2.85952e-05 0.0
0.231406 -3.22462e-05 0.0
0.248725 -3.4916e-05 0.0
0.24 0 0.0
0.24284 -3.27156e-05 0.0
0.24852 -3.36244e-05 0.0
0 0 0.0
0.0622239 -4.16649e-06 0.0
0.0322269 -2.75339e-06 0.0
0.16 0 0.0
0.1875 0 0.0
0.21 0 0.0
0.2275 0 0.0
0.193592 -2.69536e-05 0.0
0.138887 -1.49424e-05 0.0
0 0 0.0
0.0475 0 0.0
0.0998415 -1.03662e-05 0.0
0.0622206 -4.2131e-06 0.0
0.0998462 -1.08329e-05 0.0
0.138891 -1.50771e-05 0.0
0.17438 -3.7847e-05 0.0
0.201606 -5.18844e-05 0.0
0.235787 -6.33938e-05 0.0
0.244085 -6.63441e-05 0.0
0.223602 -8.50096e-05 0.0
0.249751 -6.93236e-05 0.0
0.249044 -7.72582e-05 0.0
0.231404 -3.27705e-05 0.0
0.244081 -6.55559e-05 0.0
0 0 0.0
0.036108 -5.3359e-06 0.0
0.0736126 -1.49321e-05 0.0
0.062249 -1.63735e-05 0.0
0.17437 -3.72862e-05 0.0
0.220162 -5.18751e-05 0.0
0.201594 -5.19594e-05 0.0
0.115548 -2.23212e-05 0.0
0.146676 -3.4626e-05 0.0
0 0 0.0
0.0360874 -3.5902e-06 0.0
0.0693661 -1.16647e-05 0.0
0.0899835 -2.31878e-05 0.0
0.109391 -3.13938e-05 0.0
0.146692 -3.39596e-05 0.0
0.178902 -6.35276e-05 0.0
0.206293 -8.31372e-05 0.0
0.214501 -0.000112132 0.0
0.238527 -9.94523e-05 0.0
0.24735 -0.000103578 0.0
0.229607 -0.000126665 0.0
0.226323 -8.93299e-05 0.0
0.249983 -0.000104093 0.0
0.246426 -0.000101261 0.0
0.23668 -9.53185e-05 0.0
0 0 0.0
0.0322504 -6.03892e-06 0.0
0.0956966 -3.56802e-05 0.0
0.0694292 -2.68947e-05 0.0
0.178876 -6.2555e-05 0.0
0.206269 -8.37621e-05 0.0
0.127476 -4.81916e-05 0.0
0.165873 -7.92184e-05 0.0
0.152325 -5.6666e-05 0.0
0 0 0.0
0.0360797 -5.16777e-06 0.0
0.0621958 -1.61981e-05 0.0
0.09563 -3.63488e-05 0.0
0.127525 -4.86615e-05 0.0
0.156661 -7.07698e-05 0.0
0.115601 -5.5914e-05 0.0
0.193626 -0.000116933 0.0
0.218141 -0.00014809 0.0
0.24094 -0.000134991 0.0
0.247737 -0.000140017 0.0
0.25 -0.000141551 0.0
0.234398 -0.000171531 0.0
0.229576 -0.000124909 0.0
0.247727 -0.000139707 0.0
0.240919 -0.000134752 0.0
0 0 0.0
0.034487 -8.37566e-06 0.0
0.103121 -5.49717e-05 0.0
0.0623029 -2.72625e-05 0.0
0.189727 -9.92987e-05 0.0
0.212989 -0.000138884 0.0
0.170534 -0.000107588 0.0
0.144329 -7.97868e-05 0.0
0 0 0.0
0.0398982 -8.91327e-06 0.0
0.0997863 -4.99325e-05 0.0
0.0693213 -2.64477e-05 0.0
0.170624 -0.000107722 0.0
0.144421 -8.15157e-05 0.0
0.124377 -8.27282e-05 0.0
0.18365 -0.000136321 0.0
0.204132 -0.000163317 0.0
0.222038 -0.000192411 0.0
0.249109 -0.000186038 0.0
0.244027 -0.000181063 0.0
0.24912 -0.000186046 0.0
0.238551 -0.000218651 0.0
0.234353 -0.000170519 0.0
0.244883 -0.000196172 0.0
0 0 0.0
0.0322916 -8.87948e-06 0.0
0.0940742 -5.78368e-05 0.0
0.0652172 -3.45433e-05 0.0
0.196696 -0.000149104 0.0
0.217871 -0.000183339 0.0
0.177437 -0.000151419 0.0
0.14869 -0.000105498 0.0
0.120329 -7.37677e-05 0.0
0 0 0.0
0.034391 -8.45476e-06 0.0
0.0716444 -3.46279e-05 0.0
0.152424 -0.000118405 0.0
0.127615 -0.000102882 0.0
0.187578 -0.000169291 0.0
0.211951 -0.000211039 0.0
0.248605 -0.000231204 0.0
0.225686 -0.000239212 0.0
0.249783 -0.000232886 0.0
0.246474 -0.000228948 0.0
0.242064 -0.000268219 0.0
0.23849 -0.000218034 0.0
0 0 0.0
0.0338738 -1.11451e-05 0.0
0.0999932 -7.741e-05 0.0
0.0695449 -4.60697e-05 0.0
0.20626 -0.000197527 0.0
0.222404 -0.000230394 0.0
0.189975 -0.000205413 0.0
0.168253 -0.000165763 0.0
0.143003 -0.00012703 0.0
0.124194 -9.36096e-05 0.0
0.097084 -6.28034e-05 0.0
0 0 0.0
0.0360212 -1.07844e-05 0.0
0.0673151 -3.71488e-05 0.0
0.130335 -0.00012452 0.0
0.168483 -0.000166583 0.0
0.199473 -0.000217494 0.0
0.218379 -0.000255408 0.0
0.241992 -0.000268878 0.0
0.25 -0.000280703 0.0
0.247989 -0.000277421 0.0
0.229082 -0.000288351 0.0
0.244938 -0.000319781 0.0
0.248741 -0.000294662 0.0
0.234445 -0.000275591 0.0
0 0 0.0
0.036232 -1.43895e-05 0.0
0.122659 -0.00012771 0.0
0.0712293 -5.45688e-05 0.0
0.208349 -0.00024193 0.0
0.225126 -0.000288171 0.0
0.198047 -0.000251362 0.0
0.177725 -0.000208005 0.0
0.146525 -0.000153223 0.0
0.119132 -0.000106903 0.0
0.0970511 -7.13193e-05 0.0
0 0 0.0
0.0349392 -1.2086e-05 0.0
0.0672778 -4.18696e-05 0.0
0.152302 -0.000174354 0.0
0.178018 -0.000212941 0.0
0.210116 -0.000269562 0.0
0.244858 -0.000319705 0.0
0.24942 -0.00032845 0.0
0.232226 -0.000339614 0.0
0.244197 -0.000364167 0.0
0.249989 -0.000388837 0.0
0.249132 -0.000345219 0.0
0.235912 -0.000330493 0.0
0.212964 -0.000329664 0.0
0 0 0.0
0.0371608 -1.6972e-05 0.0
0.141111 -0.000178028 0.0
0.0999585 -0.000107509 0.0
0.0665999 -5.32136e-05 0.0
0.213628 -0.000294765 0.0
0.186606 -0.000256601 0.0
0.165083 -0.000208701 0.0
0.12224 -0.000128378 0.0
0.0928656 -7.83164e-05 0.0
0 0 0.0
0.0349096 -1.35068e-05 0.0
0.0642266 -4.4499e-05 0.0
0.165598 -0.000223203 0.0
0.186969 -0.000262385 0.0
0.158125 -0.000233718 0.0
0.247091 -0.000374039 0.0
0.248691 -0.000430333 0.0
0.231053 -0.000381704 0.0
0.240526 -0.000407419 0.0
0.248758 -0.000429965 0.0
0.240202 -0.000380571 0.0
0.229255 -0.000374038 0.0
0.199183 -0.00032285 0.0
0.218635 -0.000386099 0.0
0 0 0.0
0.0346484 -1.66604e-05 0.0
0.126171 -0.00017315 0.0
0.0681786 -6.01823e-05 0.0
0.0988211 -0.000117172 0.0
0.208081 -0.000337605 0.0
0.189758 -0.000294249 0.0
0.168124 -0.00024413 0.0
0.140618 -0.000176667 0.0
0.0954081 -9.32722e-05 0.0
0 0 0.0
0.0332537 -1.3833e-05 0.0
0.0660557 -5.30296e-05 0.0
0.183225 -0.000305153 0.0
0.159265 -0.000261768 0.0
0.244898 -0.000443831 0.0
0.24966 -0.000487432 0.0
0.235962 -0.000447064 0.0
0.244859 -0.000472575 0.0
0.249378 -0.000486202 0.0
0.238619 -0.000449534 0.0
0.218419 -0.000406297 0.0
0.203106 -0.000377021 0.0
0.223372 -0.000441739 0.0
0 0 0.0
0.0478057 -3.33084e-05 0.0
0.127923 -0.00019758 0.0
0.0904257 -0.000110026 0.0
0.202606 -0.000363163 0.0
0.177964 -0.000298585 0.0
0.147885 -0.000223916 0.0
0.118718 -0.000146633 0.0
0.0780261 -7.829e-05 0.0
0 0 0.0
0.034232 -1.6308e-05 0.0
0.187834 -0.000361617 0.0
0.160404 -0.000291449 0.0
0.246451 -0.000507549 0.0
0.25 -0.000547027 0.0
0.240141 -0.000516497 0.0
0.247577 -0.000569602 0.0
0.239858 -0.000516123 0.0
0.22729 -0.000477861 0.0
0.209727 -0.000425076 0.0
0.227726 -0.000501581 0.0
0.210292 -0.000442966 0.0
0 0 0.0
0.0478694 -3.71571e-05 0.0
0.128019 -0.000220713 0.0
0.0905084 -0.000121021 0.0
0.187167 -0.000359752 0.0
0.159615 -0.000281868 0.0
0.0471983 -3.26404e-05 0.0
0.127081 -0.000194842 0.0
0.0895873 -0.000107666 0.0
0 0 0.0
0.187911 -0.000406622 0.0
0.160495 -0.000326381 0.0
0.247419 -0.000576159 0.0
0.249999 -0.000616665 0.0
0.240174 -0.000582595 0.0
0.247595 -0.000640652 0.0
0.227243 -0.000538363 0.0
0.239825 -0.00058152 0.0
0.18709 -0.000404402 0.0
0.209663 -0.000478561 0.0
0.227766 -0.000550873 0.0
0.210358 -0.000498168 0.0
0 0 0.0
0.0479394 -4.07587e-05 0.0
0.128127 -0.000245511 0.0
0.0906207 -0.000135767 0.0
0.126985 -0.000218453 0.0
0.159527 -0.000316447 0.0
0.0471389 -3.61983e-05 0.0
0.0894968 -0.000119705 0.0
0 0 0.0
0.187998 -0.000454307 0.0
0.160597 -0.000363992 0.0
0.247402 -0.000647005 0.0
0.249999 -0.000691173 0.0
0.227811 -0.000604503 0.0
0.240225 -0.00068176 0.0
0.247614 -0.000717283 0.0
0.227197 -0.000589672 0.0
0.239789 -0.000651733 0.0
0.187026 -0.000438743 0.0
0.209592 -0.000535637 0.0
0.210432 -0.0005571 0.0
0 0 0.0
0.0480216 -4.53321e-05 0.0
0.128265 -0.000276266 0.0
0.0907352 -0.000150001 0.0
0.126895 -0.000238696 0.0
0.159427 -0.000352515 0.0
0.0470667 -4.02036e-05 0.0
0.0893967 -0.00013217 0.0
0 0 0.0
0.160712 -0.000403906 0.0
0.188122 -0.000518179 0.0
0.247381 -0.000722947 0.0
0.249999 -0.000771157 0.0
0.24026 -0.000744661 0.0
0.227896 -0.000699469 0.0
0.247635 -0.000798559 0.0
0.239747 -0.000726551 0.0
0.227149 -0.000645636 0.0
0.186932 -0.000488219 0.0
0.209511 -0.000596319 0.0
0.210515 -0.000620808 0.0
0 0 0.0
0.0481043 -5.00134e-05 0.0
0.12838 -0.000301295 0.0
0.0908615 -0.000165532 0.0
0.126778 -0.000264204 0.0
0.159316 -0.000391473 0.0
0 0 0.0
0.0892848 -0.000146175 0.0
0.046994 -4.41692e-05 0.0
0.188234 -0.000576488 0.0
0.16084 -0.000447812 0.0
0.227955 -0.000762819 0.0
0.247359 -0.00080529 0.0
0.249998 -0.000857807 0.0
0.247654 -0.00086711 0.0
0.240298 -0.000810428 0.0
0.2397 -0.000807634 0.0
0.227082 -0.000718138 0.0
0.186797 -0.000554949 0.0
0.209421 -0.000662663 0.0
0.210608 -0.000688881 0.0
0 0 0.0
0.0481986 -5.51462e-05 0.0
0.0909868 -0.000180418 0.0
0.128528 -0.000332456 0.0
0.126628 -0.000295948 0.0
0.159191 -0.000433302 0.0
0 0 0.0
0.0469068 -4.85615e-05 0.0
0.0891751 -0.000159071 0.0
0.188328 -0.00062188 0.0
0.160983 -0.000495525 0.0
0.228017 -0.000830846 0.0
0.24037 -0.000936463 0.0
0.247333 -0.000894582 0.0
0.249997 -0.000951178 0.0
0.247675 -0.000939256 0.0
0.239647 -0.000895387 0.0
0.227008 -0.000796798 0.0
0.186707 -0.000599028 0.0
0.209321 -0.000733369 0.0
0.210712 -0.000763476 0.0
0 0 0.0
0.0483034 -6.05618e-05 0.0
0.128719 -0.000373156 0.0
0.0911562 -0.000201592 0.0
0.126504 -0.000321621 0.0
0.159053 -0.000478558 0.0
0.0468197 -5.27145e-05 0.0
0 0 0.0
0.0890274 -0.000176433 0.0
0.161141 -0.000547514 0.0
0.188498 -0.000704116 0.0
0.228135 -0.000952267 0.0
0.240431 -0.00103813 0.0
0.247702 -0.00104079 0.0
0.247291 -0.0010352 0.0
0.249996 -0.00105448 0.0
0.239589 -0.000992867 0.0
0.226894 -0.000911749 0.0
0.186541 -0.000677531 0.0
0.209209 -0.000811571 0.0
0.210826 -0.00084415 0.0
0 0 0.0
0.0484177 -6.64932e-05 0.0
0.091326 -0.000221228 0.0
0.161315 -0.000602697 0.0
0.128875 -0.000404771 0.0
0.126345 -0.000353955 0.0
0.158931 -0.00051746 0.0
0.0467186 -5.81452e-05 0.0
0 0 0.0
0.0888924 -0.000192257 0.0
0.210934 -0.000918982 0.0
0.188614 -0.000759982 0.0
0.240483 -0.00112395 0.0
0.228232 -0.0010551 0.0
0.247749 -0.00120146 0.0
0.249996 -0.00116555 0.0
0.247265 -0.00111898 0.0
0.239524 -0.00109704 0.0
0.226816 -0.00098964 0.0
0.186429 -0.000729327 0.0
0.15873 -0.000581608 0.0
0.209085 -0.000895296 0.0
0 0 0.0
0.0914962 -0.000242029 0.0
0.0485524 -7.40121e-05 0.0
0.161469 -0.000653327 0.0
0.129106 -0.000454319 0.0
0.126169 -0.000389633 0.0
0 0 0.0
0.0466079 -6.3781e-05 0.0
0.0887125 -0.00021308 0.0
0.211052 -0.000998362 0.0
0.188823 -0.000861388 0.0
0.240539 -0.0012163 0.0
0.228341 -0.00116622 0.0
0.247776 -0.00130021 0.0
0.249993 -0.00128809 0.0
0.247238 -0.00121103 0.0
0.15858 -0.000625888 0.0
0.208968 -0.00097251 0.0
0.23945 -0.00120988 0.0
0.22673 -0.00107442 0.0
0.186267 -0.000804324 0.0
0 0 0.0
0.0486851 -8.08246e-05 0.0
0.0916997 -0.000266256 0.0
0.16168 -0.000719772 0.0
0.129332 -0.000501238 0.0
0.0885307 -0.000233174 0.0
0.125944 -0.0004343 0.0
0 0 0.0
0.0464807 -7.03382e-05 0.0
0.211203 -0.00110183 0.0
0.189014 -0.000951314 0.0
0.240617 -0.00134273 0.0
0.228461 -0.0012883 0.0
0.247806 -0.00140578 0.0
0.249993 -0.00142328 0.0
0.247178 -0.00139452 0.0
0.158378 -0.000688137 0.0
0.239371 -0.00133578 0.0
0.208842 -0.00105364 0.0
0.226575 -0.00122733 0.0
0.18604 -0.000910057 0.0
0 0 0.0
0.0919496 -0.000296533 0.0
0.0488387 -8.90362e-05 0.0
0.161959 -0.000808695 0.0
0.12958 -0.000552853 0.0
0.0883526 -0.000253597 0.0
0.125726 -0.000478225 0.0
0 0 0.0
0.0463464 -7.72604e-05 0.0
0.189222 -0.00105116 0.0
0.211371 -0.00121665 0.0
0.240703 -0.0014838 0.0
0.247849 -0.00154914 0.0
0.228593 -0.00142185 0.0
0.24999 -0.00156813 0.0
0.247133 -0.00154158 0.0
0.239282 -0.00147107 0.0
0.24956 -0.00168098 0.0
0.158152 -0.000756388 0.0
0.226444 -0.00135384 0.0
0.208625 -0.00119461 0.0
0.185889 -0.000978019 0.0
0 0 0.0
0.0921784 -0.000324342 0.0
0.049019 -9.92859e-05 0.0
0.162168 -0.000875838 0.0
0.129854 -0.000609801 0.0
0.0881365 -0.000278129 0.0
0.125524 -0.000518335 0.0
0 0 0.0
0.0462077 -8.44276e-05 0.0
0.189454 -0.00116017 0.0
0.211557 -0.00134335 0.0
0.240793 -0.00163571 0.0
0.22874 -0.00157124 0.0
0.247916 -0.00178801 0.0
0.249164 -0.0016807 0.0
0.243772 -0.00163112 0.0
0.233389 -0.001532 0.0
0.249985 -0.00181853 0.0
0.157906 -0.000831307 0.0
0.218021 -0.00138724 0.0
0.203214 -0.00125441 0.0
0.185613 -0.00110063 0.0
0 0 0.0
0.0924526 -0.000357794 0.0
0.0492062 -0.000108943 0.0
0.16245 -0.000967191 0.0
0.130157 -0.000673571 0.0
0.125224 -0.000577551 0.0
0.0878982 -0.000305527 0.0
0 0 0.0
0.0460405 -9.23636e-05 0.0
0.18971 -0.00128154 0.0
0.211761 -0.00148344 0.0
0.247964 -0.00197056 0.0
0.2289 -0.00173457 0.0
0.2409 -0.00180641 0.0
0.24705 -0.00179553 0.0
0.239119 -0.00171855 0.0
0.226197 -0.00158889 0.0
0.249977 -0.00200501 0.0
0.157632 -0.000914961 0.0
0.208297 -0.00140734 0.0
0.185364 -0.00121166 0.0
0 0 0.0
0.0494036 -0.000119492 0.0
0.0927564 -0.000395764 0.0
0.13044 -0.000732643 0.0
0.189991 -0.00141385 0.0
0.162764 -0.0010684 0.0
0.124934 -0.000634568 0.0
0.0876361 -0.000335834 0.0
0.045863 -0.000101438 0.0
0 0 0.0
0.229045 -0.00188346 0.0
0.211988 -0.00164048 0.0
0.248009 -0.0021286 0.0
0.241012 -0.00199684 0.0
0.226025 -0.00174851 0.0
0.246986 -0.00197819 0.0
0.238998 -0.00189274 0.0
0.249972 -0.00221053 0.0
0.185093 -0.00133143 0.0
0.15727 -0.00102301 0.0
0.208003 -0.00159308 0.0
0 0 0.0
0.0496326 -0.000132651 0.0
0.093129 -0.000441882 0.0
0.130804 -0.000808629 0.0
0.190221 -0.00152762 0.0
0.163182 -0.00120957 0.0
0.124617 -0.000696286 0.0
0.0873201 -0.000372321 0.0
0.0456702 -0.000110966 0.0
0 0 0.0
0.124265 -0.000766361 0.0
0.229201 -0.00203959 0.0
0.212316 -0.00187327 0.0
0.241188 -0.00229748 0.0
0.248055 -0.00229574 0.0
0.225766 -0.00198839 0.0
0.238869 -0.0020824 0.0
0.246917 -0.00218122 0.0
0.24996 -0.00243717 0.0
0.184793 -0.00146322 0.0
0.156932 -0.00112776 0.0
0.207751 -0.00175554 0.0
0 0 0.0
0.0498854 -0.000146518 0.0
0.0935064 -0.000489503 0.0
0.131207 -0.000895651 0.0
0.190559 -0.00168783 0.0
0.163577 -0.00134105 0.0
0.0454543 -0.000123109 0.0
0.086998 -0.000410419 0.0
0 0 0.0
0.123942 -0.000828717 0.0
0.229409 -0.0022587 0.0
0.212602 -0.00207477 0.0
0.241329 -0.00253812 0.0
0.248115 -0.00253694 0.0
0.225585 -0.00215306 0.0
0.238726 -0.002291 0.0
0.249949 -0.00268872 0.0
0.2468 -0.00251054 0.0
0.184547 -0.00156768 0.0
0.156562 -0.00123963 0.0
0.207474 -0.00192827 0.0
0 0 0.0
0.050163 -0.000161681 0.0
0.0939219 -0.000541389 0.0
0.131723 -0.00100668 0.0
0.191026 -0.00191716 0.0
0.212913 -0.0023014 0.0
0.16401 -0.0014897 0.0
0.0452333 -0.00013466 0.0
0.0866481 -0.000450953 0.0
0 0 0.0
0.123527 -0.000910352 0.0
0.229717 -0.00258517 0.0
0.241449 -0.0027547 0.0
0.248181 -0.00280285 0.0
0.249934 -0.0028968 0.0
0.225394 -0.00232594 0.0
0.238558 -0.00252444 0.0
0.246706 -0.00276547 0.0
0.156155 -0.0013628 0.0
0.184194 -0.00172169 0.0
0.207166 -0.0021172 0.0
0 0 0.0
0.0504921 -0.000181093 0.0
0.0943879 -0.000603506 0.0
0.132231 -0.00112202 0.0
0.191342 -0.0020771 0.0
0.213255 -0.00255011 0.0
0.164492 -0.00165681 0.0
0.0449763 -0.000147655 0.0
0.0862626 -0.000495563 0.0
0 0 0.0
0.155804 -0.0014618 0.0
0.0858416 -0.000541994 0.0
0.123002 -0.00101155 0.0
0.229975 -0.00287785 0.0
0.241575 -0.00297924 0.0
0.24828 -0.00323853 0.0
0.249921 -0.00311506 0.0
0.246625 -0.00298255 0.0
0.225137 -0.0025531 0.0
0.238303 -0.00288532 0.0
0.1837 -0.0019297 0.0
0.206881 -0.00229635 0.0
0.230206 -0.00312887 0.0
0 0 0.0
0.0508399 -0.000201993 0.0
0.132794 -0.00125399 0.0
0.0949062 -0.000675692 0.0
0.213635 -0.00283908 0.0
0.191913 -0.00237235 0.0
0.165025 -0.00184676 0.0
0.0446817 -0.00016235 0.0
0 0 0.0
0.183373 -0.0020698 0.0
0.155325 -0.00160189 0.0
0.122494 -0.00110997 0.0
0.0443676 -0.00017948 0.0
0.0853769 -0.000595188 0.0
0.241749 -0.00330092 0.0
0.248335 -0.00350321 0.0
0.249889 -0.0034368 0.0
0.249863 -0.00370384 0.0
0.246531 -0.00321265 0.0
0.224846 -0.00280489 0.0
0.238082 -0.00317351 0.0
0.206569 -0.00247695 0.0
0.230443 -0.0034083 0.0
0.0512124 -0.000226519 0.0
0 0 0.0
0.133324 -0.00137876 0.0
0.0954826 -0.000756772 0.0
0.214046 -0.00316146 0.0
0.192298 -0.00257819 0.0
0.16562 -0.00206633 0.0
0 0 0.0
0.182904 -0.00225803 0.0
0.154691 -0.0017781 0.0
0.12203 -0.0011907 0.0
0.0440465 -0.000195441 0.0
0.0848727 -0.000650026 0.0
0.242002 -0.00381545 0.0
0.248391 -0.00378131 0.0
0.249826 -0.00398431 0.0
0.246334 -0.00368343 0.0
0.22453 -0.00307299 0.0
0.237846 -0.00348569 0.0
0.206042 -0.00278733 0.0
0.230768 -0.00379378 0.0
0 0 0.0
0.0516478 -0.000256814 0.0
0.134011 -0.00155075 0.0
0.0960688 -0.000844684 0.0
0.166277 -0.00231436 0.0
0.214499 -0.00353147 0.0
0.192998 -0.00296035 0.0
0 0 0.0
0 0 0.0
0.182384 -0.00246463 0.0
0.154106 -0.00193957 0.0
0.121437 -0.00129734 0.0
0.084324 -0.000707397 0.0
0.0436774 -0.000212228 0.0
0.242199 -0.00423376 0.0
0.248454 -0.00418508 0.0
0.237629 -0.00375416 0.0
0.249768 -0.0043923 0.0
0.246163 -0.00405757 0.0
0.224172 -0.00336843 0.0
0.20558 -0.00304269 0.0
0.242357 -0.00460865 0.0
0.2311 -0.00422684 0.0
0.0521356 -0.000289062 0.0
0.0967873 -0.000951125 0.0
0.134785 -0.00175548 0.0
0.16686 -0.00254981 0.0
0.214995 -0.00394681 0.0
0.193462 -0.00323862 0.0
0 0 0.0
0 0 0.0
0.153603 -0.00206364 0.0
0.181667 -0.0027307 0.0
0.0837894 -0.000757531 0.0
0.120692 -0.00142134 0.0
0.0432745 -0.000231611 0.0
0.248546 -0.00483159 0.0
0.249681 -0.00484745 0.0
0.205076 -0.00331465 0.0
0.237388 -0.00403432 0.0
0.246016 -0.00437144 0.0
0.223623 -0.00379538 0.0
0.242525 -0.00500122 0.0
0.231605 -0.00489946 0.0
0.215526 -0.0044242 0.0
0.0527263 -0.000331376 0.0
0.0976056 -0.0010874 0.0
0.13579 -0.00203383 0.0
0.167659 -0.0028742 0.0
0.194309 -0.00375616 0.0
0 0 0.0
0 0 0.0
0.152779 -0.00226231 0.0
0.181026 -0.0029639 0.0
0.0830879 -0.000822306 0.0
0.119986 -0.00152979 0.0
0.0428223 -0.000249541 0.0
0.245846 -0.00470545 0.0
0.249574 -0.00533666 0.0
0.248581 -0.00535555 0.0
0.204516 -0.00360091 0.0
0.237057 -0.00441944 0.0
0.223157 -0.0041507 0.0
0.180322 -0.00320143 0.0
0.242805 -0.00579227 0.0
0 0 0.0
0.231979 -0.00548926 0.0
0.195064 -0.00425099 0.0
0.216095 -0.00496275 0.0
0.0533486 -0.000382405 0.0
0.136635 -0.0022873 0.0
0.0986443 -0.001277 0.0
0.168729 -0.00336295 0.0
0 0 0.0
0 0 0.0
0 0 0.0
0 0 0.0
0 0 0.0
0.0423815 -0.000264832 0.0
0.11922 -0.00164174 0.0
0.152021 -0.00243614 0.0
0.082469 -0.000875658 0.0
0.245591 -0.00515699 0.0
0.249427 -0.00587812 0.0
0.248608 -0.00593174 0.0
0.222728 -0.00444184 0.0
0.203889 -0.00390256 0.0
0.236498 -0.00500023 0.0
0.203308 -0.00416708 0.0
0.179747 -0.00337833 0.0
0.242988 -0.00645156 0.0
0.232378 -0.00613503 0.0
0 0 0.0
9.05195e-05 -4.13467e-05 0.0
0 0 0.0
-0.000229873 0.00100529 0.0
0.216709 -0.00558839 0.0
0.195681 -0.00466757 0.0
0.0541359 -0.000451941 0.0
0.137738 -0.0026303 0.0
0.0997342 -0.00148936 0.0
0.169746 -0.00385296 0.0
0 0 0.0
0 0 0.0
0 0 0.0
-0.000157546 0.000424788 0.0
1.45932e-05 -0.000168772 0.0
0.000105199 -0.000121531 0.0
0 0 0.0
0.0418831 -0.000283288 0.0
0.11853 -0.00173103 0.0
0.151199 -0.00260664 0.0
0.081666 -0.000937427 0.0
0.245294 -0.00565833 0.0
0.249235 -0.00646727 0.0
0.248601 -0.00656076 0.0
0.222256 -0.00475511 0.0
0.236133 -0.00537121 0.0
0.202667 -0.0044329 0.0
0.178702 -0.00367851 0.0
0.243164 -0.00717443 0.0
0.235822 -0.00691239 0.0
0.225625 -0.00650562 0.0
0 0 0.0
0.000184545 -3.04821e-05 0.0
0 0 0.0
0 0 0.0
-0.000848886 0.00257332 0.0
-0.000751745 0.00150678 0.0
0.212546 -0.00599213 0.0
0.196547 -0.00530794 0.0
0.100864 -0.00172467 0.0
0.0549817 -0.000541363 0.0
0.138984 -0.00305622 0.0
0.170853 -0.0044319 0.0
0 0 0.0
-0.000192063 5.74053e-05 0.0
-0.000458186 0.000609493 0.0
-4.78653e-05 -7.59728e-05 0.0
6.0711e-05 8.95914e-06 0.0
0 0 0.0
0.0413561 -0.000300539 0.0
0.117665 -0.0018342 0.0
0.150313 -0.00276805 0.0
0.0808837 -0.000991864 0.0
0.244934 -0.00619309 0.0
0.248995 -0.00710509 0.0
0.248554 -0.00725139 0.0
0.221378 -0.00530102 0.0
0.235717 -0.00574674 0.0
0.201835 -0.00476379 0.0
0.149351 -0.00293924 0.0
0.177768 -0.00392849 0.0
0.243281 -0.00780104 0.0
0.233033 -0.00740285 0.0
0.217813 -0.00687962 0.0
0 0 0.0
0.00014013 4.12129e-05 0.0
0 0 0.0
0 0 0.0
0 0 0.0
0 0 0.0
-0.00129245 0.00164305 0.0
-0.000262512 0.0023732 0.0
-0.000913565 0.00354081 0.0
-0.00207746 0.00476097 0.0
-0.00164576 0.00303185 0.0
0 0 0.0
-9.84683e-05 0.00419977 0.0
0.197706 -0.00627959 0.0
0.171816 -0.00499543 0.0
0 0 0.0
0.0560922 -0.00067145 0.0
0.102306 -0.00206195 0.0
0.140618 -0.00371113 0.0
0 0 0.0
0 0 0.0
-0.000667545 0.000633213 0.0
-0.000391414 0.000313728 0.0