# vtk DataFile Version 3.0
Mesh NS-CD Problem
ASCII
DATASET UNSTRUCTURED_GRID
POINTS 10839 float
-2 0.3 0.0
-2 0.4 0.0
-2 0.35 0.0
-2 0.45 0.0
-2 0.5 0.0
-2 0.55 0.0
-2 0 0.0
-2 0.05 0.0
-2 0.85 0.0
-2 0.9 0.0
-2 0.1 0.0
-2 0.15 0.0
-2 0.25 0.0
-2 0.2 0.0
-1.96653 0.266667 0.0
-1.96524 0.415385 0.0
-1.96485 0.315 0.0
-1.96348 0.363636 0.0
-1.96414 0.464286 0.0
-2 0.6 0.0
-1.96538 0.584615 0.0
-1.96538 0.538462 0.0
-1.94979 0 0.0
-1.96653 0.0666666 0.0
-1.93306 0.0333333 0.0
-2 0.8 0.0
-2 0.75 0.0
-2 0.7 0.0
-2 0.65 0.0
-1.96249 0.7375 0.0
-1.96666 0.833333 0.0
-2 1 0.0
-2 0.95 0.0
-1.96249 0.8875 0.0
-1.96666 0.933333 0.0
-1.96234 0.1125 0.0
-1.96653 0.166667 0.0
-1.93724 0.225 0.0
-1.92971 0.28 0.0
-1.93048 0.380769 0.0
-1.93048 0.423077 0.0
-1.89958 0.3375 0.0
-1.9292 0.484203 0.0
-1.92117 0.530907 0.0
-1.96363 0.636364 0.0
-1.93076 0.576923 0.0
-1.89958 0 0.0
-1.88703 0.0375 0.0
-1.90963 0.08 0.0
-1.86611 0.0666666 0.0
-1.93749 0.775 0.0
-1.93635 0.672727 0.0
-1.92999 0.72 0.0
-1.93332 0.866667 0.0
-1.92856 0.821429 0.0
-1.94999 1 0.0
-1.92499 0.9625 0.0
-1.92499 0.925 0.0
-1.89998 0.9 0.0
-1.89958 0.125 0.0
-1.92827 0.178571 0.0
-1.89958 0.233333 0.0
-1.89045 0.290909 0.0
-1.86096 0.311538 0.0
-1.89241 0.392857 0.0
-1.89334 0.448489 0.0
-1.85655 0.357143 0.0
-1.89614 0.653846 0.0
-1.89427 0.504121 0.0
-1.8952 0.559753 0.0
-1.89614 0.615385 0.0
-1.84937 0 0.0
-1.83264 0.0333333 0.0
-1.85655 0.107143 0.0
-1.81172 0.075 0.0
-1.89998 0.766667 0.0
-1.89089 0.709091 0.0
-1.87498 0.85 0.0
-1.85998 0.79 0.0
-1.88748 0.8125 0.0
-1.89998 1 0.0
-1.88748 0.9625 0.0
-1.86664 0.933333 0.0
-1.85712 0.892857 0.0
-1.87448 0.15 0.0
-1.86611 0.194444 0.0
-1.83264 0.133333 0.0
-1.83264 0.2625 0.0
-1.82068 0.321429 0.0
-1.85664 0.404762 0.0
-1.85674 0.452381 0.0
-1.85683 0.5 0.0
-1.81184 0.375 0.0
-1.85712 0.642857 0.0
-1.85693 0.547619 0.0
-1.85702 0.595238 0.0
-1.79917 0 0.0
-1.78482 0.0357143 0.0
-1.79917 0.116667 0.0
-1.76569 0.0666666 0.0
-1.85452 0.745455 0.0
-1.82689 0.692308 0.0
-1.81815 0.781818 0.0
-1.82497 0.825 0.0
-1.84997 1 0.0
-1.8333 0.958333 0.0
-1.81247 0.8875 0.0
-1.81247 0.925 0.0
-1.81742 0.218182 0.0
-1.82427 0.175 0.0
-1.77634 0.145455 0.0
-1.79144 0.242308 0.0
-1.78482 0.285714 0.0
-1.77469 0.332653 0.0
-1.81215 0.529762 0.0
-1.81194 0.422619 0.0
-1.81203 0.470238 0.0
-1.76714 0.392857 0.0
-1.81234 0.625 0.0
-1.79732 0.571429 0.0
-1.74896 0 0.0
-1.73222 0.0333333 0.0
-1.75398 0.105 0.0
-1.71883 0.07 0.0
-1.79227 0.730769 0.0
-1.78007 0.679121 0.0
-1.75765 0.769231 0.0
-1.78178 0.818182 0.0
-1.78996 0.86 0.0
-1.79996 1 0.0
-1.78568 0.964286 0.0
-1.76663 0.922222 0.0
-1.76569 0.1875 0.0
-1.73222 0.15 0.0
-1.74896 0.25 0.0
-1.73714 0.304762 0.0
-1.76743 0.537202 0.0
-1.72869 0.343878 0.0
-1.76732 0.485119 0.0
-1.76723 0.440476 0.0
-1.72243 0.410714 0.0
-1.76757 0.607143 0.0
-1.69875 0 0.0
-1.68369 0.035 0.0
-1.69875 0.1125 0.0
-1.66528 0.075 0.0
-1.74341 0.708974 0.0
-1.73324 0.665934 0.0
-1.70441 0.74478 0.0
-1.71423 0.785714 0.0
-1.72303 0.826923 0.0
-1.74541 0.854545 0.0
-1.74541 0.890909 0.0
-1.74996 1 0.0
-1.73745 0.9625 0.0
-1.71359 0.927273 0.0
-1.68716 0.153846 0.0
-1.7131 0.214286 0.0
-1.70725 0.275 0.0
-1.69712 0.321939 0.0
-1.72279 0.589286 0.0
-1.72261 0.5 0.0
-1.7227 0.544643 0.0
-1.6827 0.355102 0.0
-1.67773 0.428571 0.0
-1.70763 0.464286 0.0
-1.70369 0.62449 0.0
-1.64854 0 0.0
-1.63181 0.0375 0.0
-1.64137 0.142857 0.0
-1.61764 0.0769231 0.0
-1.69458 0.703846 0.0
-1.67471 0.657437 0.0
-1.66143 0.727637 0.0
-1.67125 0.768571 0.0
-1.67851 0.821429 0.0
-1.68841 0.861538 0.0
-1.70904 0.890909 0.0
-1.69995 1 0.0
-1.68176 0.963636 0.0
-1.67267 0.927273 0.0
-1.65427 0.187143 0.0
-1.66718 0.231429 0.0
-1.66554 0.3 0.0
-1.67802 0.571429 0.0
-1.67792 0.523809 0.0
-1.6367 0.366327 0.0
-1.63682 0.423469 0.0
-1.62568 0.502976 0.0
-1.6629 0.470238 0.0
-1.65254 0.618367 0.0
-1.6059 0.307143 0.0
-1.59833 0 0.0
-1.58288 0.0384615 0.0
-1.60563 0.169643 0.0
-1.58179 0.112271 0.0
-1.56964 0.0714286 0.0
-1.64574 0.690385 0.0
-1.62827 0.751429 0.0
-1.63371 0.791071 0.0
-1.64279 0.857143 0.0
-1.65378 0.896154 0.0
-1.64994 1 0.0
-1.6363 0.963636 0.0
-1.61916 0.930769 0.0
-1.61345 0.209107 0.0
-1.62126 0.248571 0.0
-1.56989 0.196429 0.0
-1.63324 0.553571 0.0
-1.58846 0.535714 0.0
-1.59408 0.361905 0.0
-1.59161 0.402211 0.0
-1.58832 0.464286 0.0
-1.61504 0.598581 0.0
-1.59683 0.64359 0.0
-1.57899 0.274107 0.0
-1.56176 0.322381 0.0
-1.54812 0 0.0
-1.53378 0.0357143 0.0
-1.54593 0.147619 0.0
-1.53385 0.0732143 0.0
-1.53393 0.110714 0.0
-1.58522 0.704286 0.0
-1.58709 0.745 0.0
-1.58896 0.785714 0.0
-1.60695 0.830357 0.0
-1.60707 0.892857 0.0
-1.59993 1 0.0
-1.58454 0.965385 0.0
-1.57135 0.928571 0.0
-1.55209 0.241071 0.0
-1.5291 0.198214 0.0
-1.56936 0.570918 0.0
-1.54369 0.517857 0.0
-1.5464 0.380952 0.0
-1.54564 0.427721 0.0
-1.54488 0.47449 0.0
-1.55026 0.606122 0.0
-1.54222 0.677143 0.0
-1.52943 0.282857 0.0
-1.52143 0.33619 0.0
-1.49792 0 0.0
-1.49802 0.05 0.0
-1.49822 0.15 0.0
-1.49312 0.1 0.0
-1.5423 0.717143 0.0
-1.54419 0.767857 0.0
-1.54727 0.819048 0.0
-1.57122 0.861905 0.0
-1.53553 0.914286 0.0
-1.54992 1 0.0
-1.53563 0.964286 0.0
-1.49842 0.25 0.0
-1.48831 0.2 0.0
-1.5214 0.558929 0.0
-1.49891 0.5 0.0
-1.49871 0.4 0.0
-1.47631 0.45 0.0
-1.49911 0.6 0.0
-1.49921 0.65 0.0
-1.49931 0.7 0.0
-1.48111 0.35 0.0
-1.48351 0.3 0.0
-1.44771 0 0.0
-1.44782 0.05 0.0
-1.44804 0.15 0.0
-1.44793 0.1 0.0
-1.49941 0.75 0.0
-1.49951 0.8 0.0
-1.49981 0.95 0.0
-1.49961 0.85 0.0
-1.49971 0.9 0.0
-1.49991 1 0.0
-1.44826 0.25 0.0
-1.43815 0.2 0.0
-1.47151 0.55 0.0
-1.44881 0.5 0.0
-1.44859 0.4 0.0
-1.42619 0.45 0.0
-1.44913 0.65 0.0
-1.44902 0.6 0.0
-1.44935 0.75 0.0
-1.44924 0.7 0.0
-1.43972 0.35 0.0
-1.43336 0.3 0.0
-1.3975 0 0.0
-1.39762 0.05 0.0
-1.39786 0.15 0.0
-1.39274 0.1 0.0
-1.44957 0.85 0.0
-1.44946 0.8 0.0
-1.4523 0.95 0.0
-1.44968 0.9 0.0
-1.4499 1 0.0
-1.3981 0.25 0.0
-1.38798 0.2 0.0
-1.42141 0.55 0.0
-1.3987 0.5 0.0
-1.39834 0.35 0.0
-1.37845 0.4 0.0
-1.37607 0.45 0.0
-1.40784 0.65 0.0
-1.39894 0.6 0.0
-1.41185 0.75 0.0
-1.39918 0.7 0.0
-1.38322 0.3 0.0
-1.34729 0 0.0
-1.34492 0.05 0.0
-1.34018 0.15 0.0
-1.34255 0.1 0.0
-1.40707 0.85 0.0
-1.39941 0.8 0.0
-1.39977 0.95 0.0
-1.39965 0.9 0.0
-1.39989 1 0.0
-1.33781 0.2 0.0
-1.33544 0.25 0.0
-1.37131 0.55 0.0
-1.34859 0.5 0.0
-1.33833 0.4 0.0
-1.3307 0.35 0.0
-1.32595 0.45 0.0
-1.34885 0.6 0.0
-1.36655 0.65 0.0
-1.36179 0.75 0.0
-1.34911 0.7 0.0
-1.33307 0.3 0.0
-1.29708 0 0.0
-1.29722 0.05 0.0
-1.2975 0.15 0.0
-1.29236 0.1 0.0
-1.35703 0.85 0.0
-1.34937 0.8 0.0
-1.34988 1 0.0
-1.34962 0.9 0.0
-1.35226 0.95 0.0
-1.28528 0.25 0.0
-1.28764 0.2 0.0
-1.28931 0.35 0.0
-1.32121 0.55 0.0
-1.29848 0.5 0.0
-1.28709 0.45 0.0
-1.2982 0.4 0.0
-1.29876 0.6 0.0
-1.31647 0.65 0.0
-1.29918 0.75 0.0
-1.29904 0.7 0.0
-1.28292 0.3 0.0
-1.24687 0 0.0
-1.24702 0.05 0.0
-1.24717 0.1 0.0
-1.24732 0.15 0.0
-1.29946 0.85 0.0
-1.29932 0.8 0.0
-1.29987 1 0.0
-1.29974 0.95 0.0
-1.30462 0.9 0.0
-1.24762 0.25 0.0
-1.23747 0.2 0.0
-1.24792 0.35 0.0
-1.22807 0.4 0.0
-1.27111 0.55 0.0
-1.24837 0.5 0.0
-1.24822 0.45 0.0
-1.24867 0.6 0.0
-1.26639 0.65 0.0
-1.26167 0.75 0.0
-1.24897 0.7 0.0
-1.23277 0.3 0.0
-1.19667 0 0.0
-1.19683 0.05 0.0
-1.18964 0.15 0.0
-1.19198 0.1 0.0
-1.25695 0.85 0.0
-1.24927 0.8 0.0
-1.25223 0.95 0.0
-1.24987 1 0.0
-1.24957 0.9 0.0
-1.1873 0.2 0.0
-1.18496 0.25 0.0
-1.18028 0.35 0.0
-1.17794 0.4 0.0
-1.1981 0.45 0.0
-1.19842 0.55 0.0
-1.19826 0.5 0.0
-1.19858 0.6 0.0
-1.19874 0.65 0.0
-1.19906 0.75 0.0
-1.1989 0.7 0.0
-1.18262 0.3 0.0
-1.14646 0 0.0
-1.14663 0.05 0.0
-1.1418 0.1 0.0
-1.13713 0.2 0.0
-1.14697 0.15 0.0
-1.20691 0.85 0.0
-1.20926 0.8 0.0
-1.20221 0.95 0.0
-1.19986 1 0.0
-1.20456 0.9 0.0
-1.13997 0.3 0.0
-1.14731 0.25 0.0
-1.13781 0.4 0.0
-1.13014 0.35 0.0
-1.12548 0.45 0.0
-1.14815 0.5 0.0
-1.15962 0.55 0.0
-1.14849 0.6 0.0
-1.15745 0.65 0.0
-1.16155 0.75 0.0
-1.14917 0.8 0.0
-1.14883 0.7 0.0
-1.09625 0 0.0
-1.09661 0.1 0.0
-1.09393 0.05 0.0
-1.09697 0.2 0.0
-1.08929 0.15 0.0
-1.15687 0.85 0.0
-1.14985 1 0.0
-1.15219 0.95 0.0
-1.14951 0.9 0.0
-1.09733 0.3 0.0
-1.08465 0.25 0.0
-1.09769 0.4 0.0
-1.08 0.35 0.0
-1.08661 0.45 0.0
-1.09804 0.5 0.0
-1.12082 0.55 0.0
-1.10916 0.8 0.0
-1.10629 0.7 0.0
-1.0984 0.6 0.0
-1.11616 0.65 0.0
-1.11149 0.75 0.0
-1.04604 0 0.0
-1.04623 0.05 0.0
-1.04642 0.1 0.0
-1.0468 0.2 0.0
-1.03911 0.15 0.0
-1.09948 0.9 0.0
-1.0993 0.85 0.0
-1.09984 1 0.0
-1.09966 0.95 0.0
-1.04718 0.3 0.0
-1.03449 0.25 0.0
-1.04756 0.4 0.0
-1.02986 0.35 0.0
-1.04775 0.45 0.0
-1.04794 0.5 0.0
-1.04813 0.55 0.0
-1.05911 0.8 0.0
-1.04831 0.6 0.0
-1.06376 0.7 0.0
-1.0485 0.65 0.0
-1.04888 0.75 0.0
-0.995833 0 0.0
-0.991231 0.1 0.0
-0.996033 0.05 0.0
-0.986629 0.2 0.0
-0.98893 0.15 0.0
-1.05447 0.9 0.0
-1.04926 0.85 0.0
-1.04983 1 0.0
-1.04964 0.95 0.0
-0.984328 0.25 0.0
-0.99703 0.3 0.0
-0.997429 0.4 0.0
-0.997628 0.45 0.0
-0.979726 0.35 0.0
-0.997827 0.5 0.0
-0.998027 0.55 0.0
-0.998226 0.6 0.0
-0.961416 0.475 0.0
-1.00907 0.8 0.0
-0.998426 0.65 0.0
-0.998625 0.7 0.0
-1.01138 0.75 0.0
-0.945625 0 0.0
-0.946044 0.1 0.0
-0.943334 0.05 0.0
-0.946463 0.2 0.0
-0.938752 0.15 0.0
-1.00444 0.9 0.0
-1.00675 0.85 0.0
-0.999821 1 0.0
-1.00213 0.95 0.0
-0.93417 0.25 0.0
-0.946881 0.3 0.0
-0.9473 0.4 0.0
-0.929588 0.35 0.0
-0.925005 0.45 0.0
-0.960371 0.525 0.0
-0.959325 0.575 0.0
-0.958279 0.625 0.0
-0.922714 0.5 0.0
-0.959017 0.8 0.0
-0.957233 0.675 0.0
-0.952999 0.7125 0.0
-0.948766 0.75 0.0
-0.895417 0 0.0
-0.895855 0.1 0.0
-0.893136 0.05 0.0
-0.896294 0.2 0.0
-0.888573 0.15 0.0
-0.949184 0.85 0.0
-0.954415 0.9 0.0
-0.949812 1 0.0
-0.949603 0.95 0.0
-0.884011 0.25 0.0
-0.896733 0.3 0.0
-0.874887 0.45 0.0
-0.879449 0.35 0.0
-0.897171 0.4 0.0
-0.920423 0.55 0.0
-0.918132 0.6 0.0
-0.915841 0.65 0.0
-0.872606 0.5 0.0
-0.908968 0.8 0.0
-0.91355 0.7 0.0
-0.898707 0.75 0.0
-0.845208 0 0.0
-0.845438 0.05 0.0
-0.845667 0.1 0.0
-0.845896 0.15 0.0
-0.833853 0.25 0.0
-0.846126 0.2 0.0
-0.899146 0.85 0.0
-0.904386 0.9 0.0
-0.899584 0.95 0.0
-0.899804 1 0.0
-0.838062 0.35 0.0
[...]
POINT_DATA 10839
VECTORS Velocity float
0.21 0 0.0
0.24 0 0.0
0.2275 0 0.0
0.2475 0 0.0
0.25 0 0.0
0.2475 0 0.0
0 0 0.0
0.0475 0 0.0
0.1275 0 0.0
0.09 0 0.0
0.09 0 0.0
0.1275 0 0.0
0.1875 0 0.0
0.16 0 0.0
0.195619 -0.000423409 0.0
0.242788 -0.000335309 0.0
0.215763 -0.000524781 0.0
0.23137 -0.000501803 0.0
0.248642 -0.000139421 0.0
0.24 0 0.0
0.242786 0.000309025 0.0
0.24844 0.000105315 0.0
0 0 0.0
0.0621348 0.00084826 0.0
0.0311477 0.000568247 0.0
0.16 0 0.0
0.1875 0 0.0
0.21 0 0.0
0.2275 0 0.0
0.193666 0.000453888 0.0
0.139021 -0.00016968 0.0
0 0 0.0
0.0475 0 0.0
0.0999856 -0.000776847 0.0
0.0621534 -0.000865224 0.0
0.0999203 0.000757892 0.0
0.139033 0.000160816 0.0
0.174651 -0.000581053 0.0
0.201721 -0.0011478 0.0
0.235605 -0.000981044 0.0
0.243842 -0.000697084 0.0
0.223436 -0.00193075 0.0
0.249421 -0.000155345 0.0
0.248681 0.000290038 0.0
0.231355 0.000463145 0.0
0.243843 0.000664591 0.0
0 0 0.0
0.035122 -0.000523689 0.0
0.0736073 3.5298e-05 0.0
0.0630987 -0.00321648 0.0
0.174647 0.000537999 0.0
0.220132 0.000994228 0.0
0.201743 0.00111272 0.0
0.11606 -0.000705925 0.0
0.147252 0.000173243 0.0
0 0 0.0
0.03496 -0.000493891 0.0
0.0691579 -0.000921708 0.0
0.0903627 0.000701968 0.0
0.110215 -0.000797783 0.0
0.147209 -0.000152216 0.0
0.179511 -0.00173841 0.0
0.206431 -0.00245297 0.0
0.214237 -0.00377029 0.0
0.237981 -0.0016735 0.0
0.246621 -0.000879798 0.0
0.228751 -0.00337603 0.0
0.22609 0.00197125 0.0
0.24921 6.33357e-05 0.0
0.245754 0.000901542 0.0
0.236242 0.00155738 0.0
0 0 0.0
0.0350893 -0.00202346 0.0
0.0964629 -0.00610088 0.0
0.0760476 -0.00950107 0.0
0.179501 0.00165836 0.0
0.206358 0.00232813 0.0
0.128498 0.00323817 0.0
0.166784 0.00452133 0.0
0.153412 0.00192331 0.0
0 0 0.0
0.0351299 0.000540295 0.0
0.0632055 0.00320976 0.0
0.0964375 0.00603283 0.0
0.128442 -0.00333625 0.0
0.157694 -0.00400357 0.0
0.116048 -0.0104246 0.0
0.193719 -0.00683536 0.0
0.21695 -0.00657322 0.0
0.239699 -0.00241152 0.0
0.246266 -0.00129518 0.0
0.248447 -5.96505e-05 0.0
0.232137 -0.00536565 0.0
0.228783 0.00323754 0.0
0.246272 0.00116532 0.0
0.23968 0.00231455 0.0
0 0 0.0
0.0446084 -0.00340039 0.0
0.105724 -0.0157393 0.0
0.0785815 -0.0103112 0.0
0.19017 0.00467123 0.0
0.212277 0.0062692 0.0
0.170428 0.0104634 0.0
0.144584 0.0109126 0.0
0 0 0.0
0.0434798 0.00306809 0.0
0.10211 0.0134272 0.0
0.0758548 0.0093689 0.0
0.170487 -0.0106334 0.0
0.144432 -0.0110519 0.0
0.12508 -0.0209124 0.0
0.181997 -0.014214 0.0
0.201715 -0.0128123 0.0
0.218406 -0.0111652 0.0
0.246079 0.00119008 0.0
0.241265 -0.00341699 0.0
0.246093 -0.00136009 0.0
0.233575 -0.00779144 0.0
0.23211 0.00523127 0.0
0.241474 0.00359756 0.0
0 0 0.0
0.0511628 -0.00324651 0.0
0.104748 -0.0189289 0.0
0.0925141 -0.0114804 0.0
0.195076 0.0124292 0.0
0.214729 0.011145 0.0
0.173856 0.0217427 0.0
0.147164 0.0196599 0.0
0.120967 0.0183659 0.0
0 0 0.0
0.044449 0.00332284 0.0
0.086338 0.0128365 0.0
0.15028 -0.0228576 0.0
0.130102 -0.0265778 0.0
0.182852 -0.0220937 0.0
0.205507 -0.0192734 0.0
0.243057 0.00263028 0.0
0.217859 -0.0165549 0.0
0.244151 -0.00113671 0.0
0.241052 -0.00434224 0.0
0.232838 -0.00991184 0.0
0.233572 0.00747068 0.0
0 0 0.0
0.0620975 -0.0031658 0.0
0.119346 -0.0215262 0.0
0.109378 -0.0112103 0.0
0.200579 0.0194166 0.0
0.215247 0.0167519 0.0
0.18155 0.0291001 0.0
0.162876 0.0299494 0.0
0.142363 0.0289997 0.0
0.12677 0.0249529 0.0
0.108329 0.0200924 0.0
0 0 0.0
0.0556797 0.00402185 0.0
0.0956255 0.0120598 0.0
0.137128 -0.0287753 0.0
0.162932 -0.0303056 0.0
0.19048 -0.027007 0.0
0.207159 -0.0233737 0.0
0.232769 0.00967149 0.0
0.240346 -8.61766e-05 0.0
0.238501 0.00479554 0.0
0.215498 -0.0207908 0.0
0.22973 -0.0107068 0.0
0.237446 -0.00454871 0.0
0.22343 0.0157206 0.0
0 0 0.0
0.0741098 -0.00284679 0.0
0.140431 -0.0251063 0.0
0.121167 -0.0094325 0.0
0.197558 0.0264558 0.0
0.210702 0.022994 0.0
0.18538 0.0316059 0.0
0.169597 0.0330816 0.0
0.147644 0.0313744 0.0
0.130944 0.0262334 0.0
0.115624 0.0208237 0.0
0 0 0.0
0.0643357 0.00335482 0.0
0.105825 0.0109361 0.0
0.153036 -0.031775 0.0
0.169732 -0.0335924 0.0
0.196086 -0.0291274 0.0
0.229714 0.0104907 0.0
0.233975 0.00339187 0.0
0.211832 -0.0223554 0.0
0.222566 -0.0133518 0.0
0.225816 0.000368631 0.0
0.231385 -0.00488482 0.0
0.217544 0.0189991 0.0
0.192551 -0.0294551 0.0
0 0 0.0
0.0817769 -0.00218489 0.0
0.153535 -0.0262655 0.0
0.144353 -0.0141316 0.0
0.125536 -0.0063257 0.0
0.197064 0.0290444 0.0
0.17543 0.0329146 0.0
0.161954 0.0321698 0.0
0.140506 0.0249253 0.0
0.126272 0.0175008 0.0
0 0 0.0
0.0714879 0.00271529 0.0
0.114808 0.00793991 0.0
0.163376 -0.0310124 0.0
0.175525 -0.0328948 0.0
0.16391 -0.0255173 0.0
0.224589 0.00922422 0.0
0.217975 0.00630542 0.0
0.204884 -0.0230865 0.0
0.211907 -0.0172251 0.0
0.217944 -0.00668632 0.0
0.215473 0.0170878 0.0
0.203945 0.0236068 0.0
0.182378 -0.0294399 0.0
0.192967 -0.0254799 0.0
0 0 0.0
0.0811333 -0.00134106 0.0
0.157762 -0.0167922 0.0
0.132044 -0.00518328 0.0
0.152003 -0.01047 0.0
0.187867 0.0287236 0.0
0.177193 0.0300376 0.0
0.166306 0.0287897 0.0
0.153224 0.0261887 0.0
0.137737 0.0149673 0.0
0 0 0.0
0.0745931 0.0018201 0.0
0.12526 0.0062418 0.0
0.174536 -0.0262416 0.0
0.16796 -0.0209577 0.0
0.211725 0.0120815 0.0
0.210941 0.00276875 0.0
0.202182 -0.0184791 0.0
0.208004 -0.0119817 0.0
0.211002 -0.00444841 0.0
0.204457 0.0166134 0.0
0.191474 0.0233631 0.0
0.18335 -0.0240033 0.0
0.192629 -0.0208624 0.0
0 0 0.0
0.108156 -0.00196759 0.0
0.164273 -0.0128241 0.0
0.153426 -0.006672 0.0
0.183423 0.0251233 0.0
0.172909 0.0246527 0.0
0.162963 0.0210452 0.0
0.151778 0.0177248 0.0
0.140728 0.0067304 0.0
0 0 0.0
0.0808397 0.0013617 0.0
0.177994 -0.020154 0.0
0.171428 -0.0165849 0.0
0.205453 0.00863092 0.0
0.20426 -0.00027187 0.0
0.199042 -0.013131 0.0
0.200028 -0.00637347 0.0
0.198992 0.0127303 0.0
0.192931 0.0173849 0.0
0.185485 0.0198789 0.0
0.191873 -0.0161884 0.0
0.185376 -0.0185782 0.0
0 0 0.0
0.11131 -0.00122241 0.0
0.16913 -0.00911604 0.0
0.158022 -0.00479153 0.0
0.177641 0.019932 0.0
0.170335 0.0174175 0.0
0.107711 0.00193462 0.0
0.163588 0.0127704 0.0
0.152098 0.00688796 0.0
0 0 0.0
0.179165 -0.0148206 0.0
0.174629 -0.011972 0.0
0.199496 0.00570123 0.0
0.19814 -0.000259219 0.0
0.194318 -0.0100753 0.0
0.19512 -0.00481962 0.0
0.189774 0.0129298 0.0
0.194193 0.00953956 0.0
0.178841 0.0145362 0.0
0.184459 0.0146705 0.0
0.189543 -0.0126658 0.0
0.184513 -0.0136802 0.0
0 0 0.0
0.113624 -0.000690406 0.0
0.172756 -0.00637292 0.0
0.161932 -0.00317407 0.0
0.168732 0.00895307 0.0
0.173568 0.012569 0.0
0.110683 0.00120808 0.0
0.157374 0.00470686 0.0
0 0 0.0
0.180242 -0.0106274 0.0
0.17701 -0.00849146 0.0
0.19456 0.00408405 0.0
0.193509 -0.000326686 0.0
0.187811 -0.00971786 0.0
0.189747 -0.00647922 0.0
0.191332 -0.00358878 0.0
0.187933 0.0097894 0.0
0.190721 0.00679145 0.0
0.179628 0.0112168 0.0
0.183804 0.0104256 0.0
0.18399 -0.00984708 0.0
0 0 0.0
0.114815 -0.000581425 0.0
0.1757 -0.00419974 0.0
0.164402 -0.00219921 0.0
0.171729 0.00652362 0.0
0.176107 0.00881207 0.0
0.112808 0.000703488 0.0
0.160989 0.00315178 0.0
0 0 0.0
0.178775 -0.00598708 0.0
0.181187 -0.00690487 0.0
0.190974 0.00279842 0.0
0.190276 -0.000365374 0.0
0.188062 -0.00500409 0.0
0.185905 -0.0062277 0.0
0.188753 -0.00266909 0.0
0.188243 0.00465838 0.0
0.186514 0.00726186 0.0
0.180381 0.00779268 0.0
0.183358 0.00722289 0.0
0.183662 -0.00702093 0.0
0 0 0.0
0.115496 -0.000434775 0.0
0.177229 -0.00311149 0.0
0.166119 -0.00154181 0.0
0.174385 0.00442299 0.0
0.177884 0.00606353 0.0
0 0 0.0
0.163568 0.00207474 0.0
0.114083 0.000461724 0.0
0.18176 -0.00492052 0.0
0.180035 -0.00422422 0.0
0.18514 -0.00474769 0.0
0.188425 0.00180166 0.0
0.187943 -0.000426134 0.0
0.187286 -0.00215973 0.0
0.186729 -0.0038929 0.0
0.1865 0.00309745 0.0
0.185274 0.00494323 0.0
0.181065 0.00480041 0.0
0.183045 0.00490705 0.0
0.18346 -0.00502362 0.0
0 0 0.0
0.116343 -0.000246121 0.0
0.1671 -0.00110101 0.0
0.178485 -0.00220169 0.0
0.176507 0.00278138 0.0
0.179158 0.0041009 0.0
0 0 0.0
0.114912 0.00029743 0.0
0.164907 0.00141974 0.0
0.182109 -0.00383549 0.0
0.180991 -0.00302158 0.0
0.184576 -0.00366255 0.0
0.185199 -0.0025981 0.0
0.186654 0.00107484 0.0
0.18635 -0.000497867 0.0
0.186178 -0.00178491 0.0
0.185277 0.00196403 0.0
0.184398 0.00326989 0.0
0.181347 0.00354429 0.0
0.182821 0.00324749 0.0
0.183353 -0.00365503 0.0
0 0 0.0
0.116883 -8.94575e-05 0.0
0.17976 -0.00151128 0.0
0.168274 -0.000723044 0.0
0.17755 0.00194709 0.0
0.180031 0.00271463 0.0
0.115298 0.000180246 0.0
0 0 0.0
0.166105 0.000880642 0.0
0.181652 -0.00221514 0.0
0.182517 -0.00260266 0.0
0.183993 -0.00250264 0.0
0.184517 -0.00204359 0.0
0.185151 -0.00147158 0.0
0.184968 0.000330586 0.0
0.185229 -0.000580304 0.0
0.184415 0.00114124 0.0
0.1836 0.00173613 0.0
0.18164 0.00203805 0.0
0.182645 0.00206416 0.0
0.183301 -0.00272689 0.0
0 0 0.0
0.117365 -7.46448e-05 0.0
0.168743 -0.000573766 0.0
0.182185 -0.00168873 0.0
0.180221 -0.00118421 0.0
0.178426 0.00123962 0.0
0.180511 0.00190928 0.0
0.11574 9.5846e-05 0.0
0 0 0.0
0.166872 0.000566761 0.0
0.183293 -0.00219209 0.0
0.182743 -0.002128 0.0
0.184131 -0.00174888 0.0
0.183736 -0.00199976 0.0
0.1842 -0.00124745 0.0
0.184455 -0.000677595 0.0
0.184386 3.55804e-05 0.0
0.183802 0.000529918 0.0
0.183267 0.00108003 0.0
0.181755 0.0014008 0.0
0.181015 0.00103888 0.0
0.182501 0.0012109 0.0
0 0 0.0
0.169423 -0.000511285 0.0
0.117596 -0.000215504 0.0
0.182544 -0.00140757 0.0
0.180882 -0.000955735 0.0
0.178964 0.000731941 0.0
0 0 0.0
0.115961 1.25085e-05 0.0
0.167421 0.000288658 0.0
0.183317 -0.00183025 0.0
0.183012 -0.00162979 0.0
0.183856 -0.00156433 0.0
0.183582 -0.00169499 0.0
0.18388 -0.00121562 0.0
0.183919 -0.000793946 0.0
0.183928 -0.000217536 0.0
0.181181 0.00062446 0.0
0.182397 0.000664222 0.0
0.183368 6.31202e-05 0.0
0.183 0.000568581 0.0
0.181823 0.000757967 0.0
0 0 0.0
0.117373 -0.000159558 0.0
0.169595 -0.00049668 0.0
0.182863 -0.00119497 0.0
0.181308 -0.000840054 0.0
0.167675 0.000118696 0.0
0.179277 0.00032653 0.0
0 0 0.0
0.116325 -5.61265e-05 0.0
0.183364 -0.00157485 0.0
0.183222 -0.00141547 0.0
0.183623 -0.00144741 0.0
0.183504 -0.00154169 0.0
0.183635 -0.00122796 0.0
0.183542 -0.000932363 0.0
0.183339 -0.000612212 0.0
0.181307 0.000231648 0.0
0.183041 -0.000314791 0.0
0.182293 0.000233466 0.0
0.182668 -6.33198e-05 0.0
0.181837 0.000177701 0.0
0 0 0.0
0.17 -0.00045179 0.0
0.118198 -8.30747e-05 0.0
0.1832 -0.00106968 0.0
0.181666 -0.000782149 0.0
0.16774 2.47887e-06 0.0
0.179512 6.22098e-05 0.0
0 0 0.0
0.11582 2.43506e-05 0.0
0.183408 -0.00132036 0.0
0.183439 -0.00145947 0.0
0.183485 -0.00143804 0.0
0.18342 -0.00129443 0.0
0.183481 -0.00150017 0.0
0.183281 -0.00109208 0.0
0.183072 -0.0008635 0.0
0.182796 -0.000633015 0.0
0.183232 -0.00131225 0.0
0.181351 -7.93927e-05 0.0
0.182476 -0.000429871 0.0
0.182133 -0.000272233 0.0
0.181801 -9.20937e-05 0.0
0 0 0.0
0.170462 -0.000426651 0.0
0.11838 -0.000182879 0.0
0.183419 -0.00105954 0.0
0.181947 -0.000781521 0.0
0.167786 -0.000124147 0.0
0.179583 -0.000107344 0.0
0 0 0.0
0.115912 -5.54236e-05 0.0
0.183601 -0.00131374 0.0
0.183538 -0.00144828 0.0
0.183399 -0.00150375 0.0
0.183502 -0.00155553 0.0
0.183228 -0.00150098 0.0
0.183028 -0.00114443 0.0
0.182775 -0.000959069 0.0
0.182485 -0.000775415 0.0
0.183022 -0.00139364 0.0
0.181313 -0.000330892 0.0
0.182176 -0.000612259 0.0
0.181937 -0.000530373 0.0
0.181701 -0.000462942 0.0
0 0 0.0
0.170665 -0.000470625 0.0
0.118516 -0.00017602 0.0
0.183692 -0.001105 0.0
0.182275 -0.000830021 0.0
0.179564 -0.000294197 0.0
0.167739 -0.000250718 0.0
0 0 0.0
0.116084 -0.000173006 0.0
0.183808 -0.00138898 0.0
0.183661 -0.00152401 0.0
0.183149 -0.00170497 0.0
0.183557 -0.00168603 0.0
0.183377 -0.00164747 0.0
0.182772 -0.00125379 0.0
0.18249 -0.00109801 0.0
0.182192 -0.00094066 0.0
0.182897 -0.00163678 0.0
0.181221 -0.00054284 0.0
0.181895 -0.000791198 0.0
0.181567 -0.000720886 0.0
0 0 0.0
0.118428 -0.000203465 0.0
0.170998 -0.000551881 0.0
0.182663 -0.000902755 0.0
0.184036 -0.00153412 0.0
0.183961 -0.00121212 0.0
0.179443 -0.000447919 0.0
0.167603 -0.000290576 0.0
0.115679 -8.3937e-05 0.0
0 0 0.0
0.183626 -0.00184981 0.0
0.183814 -0.00167999 0.0
0.183116 -0.00190537 0.0
0.18338 -0.00186176 0.0
0.18202 -0.0012311 0.0
0.182617 -0.00152569 0.0
0.182319 -0.0013866 0.0
0.182804 -0.00192214 0.0
0.181405 -0.000962312 0.0
0.181026 -0.000769565 0.0
0.181675 -0.00114712 0.0
0 0 0.0
0.119116 -0.000214582 0.0
0.17145 -0.00061943 0.0
0.182942 -0.00101594 0.0
0.184223 -0.0016863 0.0
0.184355 -0.00143123 0.0
0.179277 -0.000581416 0.0
0.167332 -0.00033585 0.0
0.115338 -0.000104687 0.0
0 0 0.0
0.179156 -0.000719119 0.0
0.183709 -0.00205149 0.0
0.184045 -0.00199817 0.0
0.183427 -0.00227196 0.0
0.183093 -0.00213787 0.0
0.181774 -0.00163115 0.0
0.182157 -0.00168923 0.0
0.182481 -0.00182941 0.0
0.182716 -0.00225751 0.0
0.181205 -0.00120082 0.0
0.180817 -0.000964439 0.0
0.181473 -0.00142824 0.0
0 0 0.0
0.119529 -0.000193315 0.0
0.171975 -0.000732454 0.0
0.183343 -0.00120546 0.0
0.184511 -0.0019455 0.0
0.184722 -0.00167797 0.0
0.115002 -0.000111171 0.0
0.167223 -0.00041866 0.0
0 0 0.0
0.178799 -0.000842247 0.0
0.18384 -0.00238736 0.0
0.184265 -0.00232839 0.0
0.183486 -0.00265051 0.0
0.183069 -0.00250169 0.0
0.181596 -0.00190016 0.0
0.18199 -0.00201758 0.0
0.182634 -0.00265258 0.0
0.182288 -0.00233529 0.0
0.181014 -0.00138352 0.0
0.180558 -0.00117006 0.0
0.18124 -0.00171749 0.0
0 0 0.0
0.120164 -0.000263057 0.0
0.172408 -0.000924686 0.0
0.183835 -0.00147869 0.0
0.184909 -0.00238231 0.0
0.184512 -0.00274807 0.0
0.185141 -0.00200813 0.0
0.114952 -0.000195397 0.0
0.166795 -0.000560177 0.0
0 0 0.0
0.17849 -0.00100265 0.0
0.184041 -0.00294959 0.0
0.18354 -0.00301739 0.0
0.183055 -0.0029376 0.0
0.182561 -0.00299575 0.0
0.181406 -0.00218316 0.0
0.181788 -0.00239509 0.0
0.182135 -0.00274743 0.0
0.18027 -0.00138393 0.0
0.180731 -0.00164642 0.0
0.180963 -0.00203124 0.0
0 0 0.0
0.120631 -0.000497975 0.0
0.173182 -0.0011607 0.0
0.184451 -0.00181831 0.0
0.185203 -0.00272382 0.0
0.184783 -0.00324385 0.0
0.185619 -0.00240259 0.0
0.114628 -0.00030972 0.0
0.16649 -0.000670089 0.0
0 0 0.0
0.179942 -0.00155411 0.0
0.165939 -0.000717114 0.0
0.177961 -0.00117544 0.0
0.184219 -0.00351143 0.0
0.183592 -0.00342175 0.0
0.183021 -0.00371128 0.0
0.182489 -0.00337404 0.0
0.182007 -0.00311402 0.0
0.181141 -0.00255801 0.0
0.181482 -0.00299603 0.0
0.180296 -0.00199702 0.0
0.180692 -0.00233119 0.0
0.18439 -0.00402977 0.0
0 0 0.0
0.12139 -0.000573179 0.0
0.185205 -0.00219604 0.0
0.173984 -0.00145718 0.0
0.185112 -0.00388058 0.0
0.185724 -0.00340438 0.0
0.186141 -0.0028978 0.0
0.114359 -0.000317536 0.0
0 0 0.0
0.179984 -0.0022376 0.0
0.179515 -0.00179056 0.0
0.177665 -0.00133945 0.0
0.113521 -0.000187381 0.0
0.165644 -0.0007844 0.0
0.183676 -0.00405042 0.0
0.18299 -0.00421276 0.0
0.182355 -0.00395905 0.0
0.182243 -0.00446913 0.0
0.181848 -0.00351782 0.0
0.180814 -0.00299117 0.0
0.181185 -0.00350184 0.0
0.18037 -0.00264268 0.0
0.184537 -0.00463767 0.0
0.122091 -0.000680795 0.0
0 0 0.0
0.18576 -0.00256726 0.0
0.17482 -0.00172118 0.0
0.185463 -0.00464464 0.0
0.186111 -0.00392105 0.0
0.186803 -0.00350226 0.0
0 0 0.0
0.17951 -0.00257067 0.0
0.178853 -0.00211397 0.0
0.177054 -0.00148891 0.0
0.113237 -0.000229462 0.0
0.16491 -0.000894228 0.0
0.183761 -0.00512788 0.0
0.182954 -0.00477104 0.0
0.182091 -0.00502483 0.0
0.181503 -0.00438695 0.0
0.180442 -0.00346856 0.0
0.180858 -0.00407231 0.0
0.179801 -0.00319726 0.0
0.18477 -0.0055353 0.0
0 0 0.0
0.12349 -0.000752629 0.0
0.186679 -0.00312383 0.0
0.175961 -0.00203432 0.0
0.187551 -0.00425893 0.0
0.185858 -0.00558878 0.0
0.186825 -0.00494723 0.0
0 0 0.0
0 0 0.0
0.178947 -0.00296137 0.0
0.17829 -0.00243231 0.0
0.176456 -0.00170974 0.0
0.164241 -0.0010418 0.0
0.112754 -0.000390369 0.0
0.183798 -0.00607502 0.0
0.18285 -0.00562494 0.0
0.180538 -0.00458033 0.0
0.181851 -0.00587081 0.0
0.181169 -0.00511942 0.0
0.179986 -0.00401468 0.0
0.179253 -0.00367525 0.0
0.183798 -0.00696697 0.0
0.184948 -0.00661796 0.0
0.124985 -0.000893448 0.0
0.177119 -0.0024871 0.0
0.187756 -0.00387845 0.0
0.188294 -0.00500942 0.0
0.186288 -0.00672091 0.0
0.18731 -0.00578419 0.0
0 0 0.0
0 0 0.0
0.177704 -0.00269179 0.0
0.178124 -0.0034855 0.0
0.163558 -0.00119692 0.0
0.175544 -0.00199771 0.0
0.112151 -0.000431812 0.0
0.182634 -0.00707149 0.0
0.181511 -0.00685641 0.0
0.178635 -0.00420638 0.0
0.18016 -0.00513372 0.0
0.180869 -0.00575623 0.0
0.179245 -0.00484676 0.0
0.183767 -0.00794147 0.0
0.185216 -0.008427 0.0
0.186717 -0.00813903 0.0
0.126431 -0.00129589 0.0
0.178844 -0.00318957 0.0
0.189364 -0.00511002 0.0
0.189317 -0.00614212 0.0
0.188201 -0.00744421 0.0
0 0 0.0
0 0 0.0
0.17675 -0.00310989 0.0
0.177349 -0.00396112 0.0
0.16261 -0.00135387 0.0
0.174772 -0.00224376 0.0
0.111268 -0.000468542 0.0
0.180507 -0.00645396 0.0
0.181076 -0.00795553 0.0
0.182327 -0.00832215 0.0
0.177904 -0.0047839 0.0
0.17961 -0.00591329 0.0
0.178565 -0.00556094 0.0
0.176464 -0.00446686 0.0
0.183537 -0.0100209 0.0
0 0 0.0
0.185252 -0.0101359 0.0
0.188971 -0.00914172 0.0
0.187102 -0.00982328 0.0
0.128762 -0.00170914 0.0
0.190832 -0.00626124 0.0
0.181334 -0.00433634 0.0
0.190667 -0.00806915 0.0
0 0 0.0
0 0 0.0
0 0 0.0
0 0 0.0
0 0 0.0
0.110402 -0.000499888 0.0
0.173968 -0.00250147 0.0
0.175827 -0.00349377 0.0
0.16175 -0.00144697 0.0
0.179931 -0.00743226 0.0
0.180489 -0.00921216 0.0
0.181932 -0.00973686 0.0
0.177912 -0.00616954 0.0
0.177041 -0.00541475 0.0
0.178627 -0.00714287 0.0
0.176216 -0.00598194 0.0
0.175693 -0.00485893 0.0
0.183145 -0.0118338 0.0
0.185189 -0.0120544 0.0
0 0 0.0
-0.000344353 0.000145144 0.0
0 0 0.0
-6.82602e-05 0.000426091 0.0
0.187431 -0.0119301 0.0
0.189611 -0.0106954 0.0
0.131884 -0.00228024 0.0
0.192638 -0.00795291 0.0
0.184002 -0.00576694 0.0
0.192084 -0.0102324 0.0
0 0 0.0
0 0 0.0
0 0 0.0
-1.63054e-05 0.000449109 0.0
-6.32664e-05 0.000617509 0.0
-0.000311566 0.000317855 0.0
0 0 0.0
0.109644 -0.000520543 0.0
0.172938 -0.00271486 0.0
0.174789 -0.00389323 0.0
0.160566 -0.0015938 0.0
0.179222 -0.00853727 0.0
0.179728 -0.0106114 0.0
0.181338 -0.0113289 0.0
0.177158 -0.00683813 0.0
0.177929 -0.00793712 0.0
0.175275 -0.00656873 0.0
0.174265 -0.0055514 0.0
0.182569 -0.013856 0.0
0.184338 -0.0140995 0.0
0.186251 -0.0140894 0.0
0 0 0.0
-0.000555905 3.09726e-05 0.0
0 0 0.0
0 0 0.0
-0.000107734 -0.00185943 0.0
0.000190571 -0.00169676 0.0
0.188215 -0.0139513 0.0
0.190346 -0.0132928 0.0
0.18706 -0.00750644 0.0
0.135791 -0.00310422 0.0
0.194847 -0.0102887 0.0
0.193464 -0.0130346 0.0
0 0 0.0
0.000185405 -1.33948e-07 0.0
0.000259569 -0.000811878 0.0
5.60068e-05 8.14118e-05 0.0
2.54741e-05 -0.000358228 0.0
0 0 0.0
0.108684 -0.000567211 0.0
0.171748 -0.0029873 0.0
0.173598 -0.00429696 0.0
0.159354 -0.00174744 0.0
0.178333 -0.00974241 0.0
0.178751 -0.0121258 0.0
0.180505 -0.0131099 0.0
0.175718 -0.00800907 0.0
0.177127 -0.00875783 0.0
0.17401 -0.00729846 0.0
0.172304 -0.0047258 0.0
0.172942 -0.0061281 0.0
0.181859 -0.0156573 0.0
0.184526 -0.0161092 0.0
0.187491 -0.0165912 0.0
0 0 0.0
-2.93943e-05 -0.000293499 0.0
0 0 0.0
0 0 0.0
0 0 0.0
0 0 0.0
0.0011351 -0.00380604 0.0
-0.000348651 0.0012272 0.0
-0.000371889 -0.00189632 0.0
0.000237788 -0.00652228 0.0
0.000617599 -0.00491387 0.0
0 0 0.0
-0.00138517 0.00899269 0.0
0.190914 -0.0174815 0.0
0.194518 -0.015851 0.0
0 0 0.0
0.141583 -0.00462682 0.0
0.191188 -0.00993074 0.0
0.197855 -0.0144398 0.0
0 0 0.0
0 0 0.0
0.000873041 -0.00199098 0.0
0.000987118 -0.00150195 0.0
0.00134429 -0.00130876 0.0
0 0 0.0
0.107659 -0.000631207 0.0
0.17024 -0.00332302 0.0
0.158086 -0.00191648 0.0
0.171107 -0.00504974 0.0
0.177237 -0.0110391 0.0
0.177837 -0.0133433 0.0
0.179394 -0.0150736 0.0
0.174648 -0.0087533 0.0
0.175946 -0.00984193 0.0
0.172592 -0.00803416 0.0
0.171836 -0.00654862 0.0
0.185513 -0.0183683 0.0
0.180896 -0.017609 0.0
0.18325 -0.0200372 0.0
0.18678 -0.0211065 0.0
0.190955 -0.0219197 0.0
0 0 0.0
0.000904027 -0.000489346 0.0
-0.00122307 0.00607445 0.0
-0.00242323 0.001178 0.0
-0.00058181 0.00218345 0.0
0.00215664 -0.00693987 0.0
0.0043029 -0.00748899 0.0
-0.00108189 -0.00222142 0.0
-0.000466556 -0.00798042 0.0
0.00148877 -0.0110049 0.0
-0.00184763 0.0133162 0.0
-0.00507596 0.0090261 0.0
0.195987 -0.0211701 0.0