# vtk DataFile Version 3.0
Mesh NS-CD Problem
ASCII
DATASET UNSTRUCTURED_GRID
POINTS 10839 float
-2 0.3 0.0
-2 0.4 0.0
-2 0.35 0.0
-2 0.45 0.0
-2 0.5 0.0
-2 0.55 0.0
-2 0 0.0
-2 0.05 0.0
-2 0.85 0.0
-2 0.9 0.0
-2 0.1 0.0
-2 0.15 0.0
-2 0.25 0.0
-2 0.2 0.0
-1.96653 0.266667 0.0
-1.96524 0.415385 0.0
-1.96485 0.315 0.0
-1.96348 0.363636 0.0
-1.96414 0.464286 0.0
-2 0.6 0.0
-1.96538 0.584615 0.0
-1.96538 0.538462 0.0
-1.94979 0 0.0
-1.96653 0.0666666 0.0
-1.93306 0.0333333 0.0
-2 0.8 0.0
-2 0.75 0.0
-2 0.7 0.0
-2 0.65 0.0
-1.96249 0.7375 0.0
-1.96666 0.833333 0.0
-2 1 0.0
-2 0.95 0.0
-1.96249 0.8875 0.0
-1.96666 0.933333 0.0
-1.96234 0.1125 0.0
-1.96653 0.166667 0.0
-1.93724 0.225 0.0
-1.92971 0.28 0.0
-1.93048 0.380769 0.0
-1.93048 0.423077 0.0
-1.89958 0.3375 0.0
-1.9292 0.484203 0.0
-1.92117 0.530907 0.0
-1.96363 0.636364 0.0
-1.93076 0.576923 0.0
-1.89958 0 0.0
-1.88703 0.0375 0.0
-1.90963 0.08 0.0
-1.86611 0.0666666 0.0
-1.93749 0.775 0.0
-1.93635 0.672727 0.0
-1.92999 0.72 0.0
-1.93332 0.866667 0.0
-1.92856 0.821429 0.0
-1.94999 1 0.0
-1.92499 0.9625 0.0
-1.92499 0.925 0.0
-1.89998 0.9 0.0
-1.89958 0.125 0.0
-1.92827 0.178571 0.0
-1.89958 0.233333 0.0
-1.89045 0.290909 0.0
-1.86096 0.311538 0.0
-1.89241 0.392857 0.0
-1.89334 0.448489 0.0
-1.85655 0.357143 0.0
-1.89614 0.653846 0.0
-1.89427 0.504121 0.0
-1.8952 0.559753 0.0
-1.89614 0.615385 0.0
-1.84937 0 0.0
-1.83264 0.0333333 0.0
-1.85655 0.107143 0.0
-1.81172 0.075 0.0
-1.89998 0.766667 0.0
-1.89089 0.709091 0.0
-1.87498 0.85 0.0
-1.85998 0.79 0.0
-1.88748 0.8125 0.0
-1.89998 1 0.0
-1.88748 0.9625 0.0
-1.86664 0.933333 0.0
-1.85712 0.892857 0.0
-1.87448 0.15 0.0
-1.86611 0.194444 0.0
-1.83264 0.133333 0.0
-1.83264 0.2625 0.0
-1.82068 0.321429 0.0
-1.85664 0.404762 0.0
-1.85674 0.452381 0.0
-1.85683 0.5 0.0
-1.81184 0.375 0.0
-1.85712 0.642857 0.0
-1.85693 0.547619 0.0
-1.85702 0.595238 0.0
-1.79917 0 0.0
-1.78482 0.0357143 0.0
-1.79917 0.116667 0.0
-1.76569 0.0666666 0.0
-1.85452 0.745455 0.0
-1.82689 0.692308 0.0
-1.81815 0.781818 0.0
-1.82497 0.825 0.0
-1.84997 1 0.0
-1.8333 0.958333 0.0
-1.81247 0.8875 0.0
-1.81247 0.925 0.0
-1.81742 0.218182 0.0
-1.82427 0.175 0.0
-1.77634 0.145455 0.0
-1.79144 0.242308 0.0
-1.78482 0.285714 0.0
-1.77469 0.332653 0.0
-1.81215 0.529762 0.0
-1.81194 0.422619 0.0
-1.81203 0.470238 0.0
-1.76714 0.392857 0.0
-1.81234 0.625 0.0
-1.79732 0.571429 0.0
-1.74896 0 0.0
-1.73222 0.0333333 0.0
-1.75398 0.105 0.0
-1.71883 0.07 0.0
-1.79227 0.730769 0.0
-1.78007 0.679121 0.0
-1.75765 0.769231 0.0
-1.78178 0.818182 0.0
-1.78996 0.86 0.0
-1.79996 1 0.0
-1.78568 0.964286 0.0
-1.76663 0.922222 0.0
-1.76569 0.1875 0.0
-1.73222 0.15 0.0
-1.74896 0.25 0.0
-1.73714 0.304762 0.0
-1.76743 0.537202 0.0
-1.72869 0.343878 0.0
-1.76732 0.485119 0.0
-1.76723 0.440476 0.0
-1.72243 0.410714 0.0
-1.76757 0.607143 0.0
-1.69875 0 0.0
-1.68369 0.035 0.0
-1.69875 0.1125 0.0
-1.66528 0.075 0.0
-1.74341 0.708974 0.0
-1.73324 0.665934 0.0
-1.70441 0.74478 0.0
-1.71423 0.785714 0.0
-1.72303 0.826923 0.0
-1.74541 0.854545 0.0
-1.74541 0.890909 0.0
-1.74996 1 0.0
-1.73745 0.9625 0.0
-1.71359 0.927273 0.0
-1.68716 0.153846 0.0
-1.7131 0.214286 0.0
-1.70725 0.275 0.0
-1.69712 0.321939 0.0
-1.72279 0.589286 0.0
-1.72261 0.5 0.0
-1.7227 0.544643 0.0
-1.6827 0.355102 0.0
-1.67773 0.428571 0.0
-1.70763 0.464286 0.0
-1.70369 0.62449 0.0
-1.64854 0 0.0
-1.63181 0.0375 0.0
-1.64137 0.142857 0.0
-1.61764 0.0769231 0.0
-1.69458 0.703846 0.0
-1.67471 0.657437 0.0
-1.66143 0.727637 0.0
-1.67125 0.768571 0.0
-1.67851 0.821429 0.0
-1.68841 0.861538 0.0
-1.70904 0.890909 0.0
-1.69995 1 0.0
-1.68176 0.963636 0.0
-1.67267 0.927273 0.0
-1.65427 0.187143 0.0
-1.66718 0.231429 0.0
-1.66554 0.3 0.0
-1.67802 0.571429 0.0
-1.67792 0.523809 0.0
-1.6367 0.366327 0.0
-1.63682 0.423469 0.0
-1.62568 0.502976 0.0
-1.6629 0.470238 0.0
-1.65254 0.618367 0.0
-1.6059 0.307143 0.0
-1.59833 0 0.0
-1.58288 0.0384615 0.0
-1.60563 0.169643 0.0
-1.58179 0.112271 0.0
-1.56964 0.0714286 0.0
-1.64574 0.690385 0.0
-1.62827 0.751429 0.0
-1.63371 0.791071 0.0
-1.64279 0.857143 0.0
-1.65378 0.896154 0.0
-1.64994 1 0.0
-1.6363 0.963636 0.0
-1.61916 0.930769 0.0
-1.61345 0.209107 0.0
-1.62126 0.248571 0.0
-1.56989 0.196429 0.0
-1.63324 0.553571 0.0
-1.58846 0.535714 0.0
-1.59408 0.361905 0.0
-1.59161 0.402211 0.0
-1.58832 0.464286 0.0
-1.61504 0.598581 0.0
-1.59683 0.64359 0.0
-1.57899 0.274107 0.0
-1.56176 0.322381 0.0
-1.54812 0 0.0
-1.53378 0.0357143 0.0
-1.54593 0.147619 0.0
-1.53385 0.0732143 0.0
-1.53393 0.110714 0.0
-1.58522 0.704286 0.0
-1.58709 0.745 0.0
-1.58896 0.785714 0.0
-1.60695 0.830357 0.0
-1.60707 0.892857 0.0
-1.59993 1 0.0
-1.58454 0.965385 0.0
-1.57135 0.928571 0.0
-1.55209 0.241071 0.0
-1.5291 0.198214 0.0
-1.56936 0.570918 0.0
-1.54369 0.517857 0.0
-1.5464 0.380952 0.0
-1.54564 0.427721 0.0
-1.54488 0.47449 0.0
-1.55026 0.606122 0.0
-1.54222 0.677143 0.0
-1.52943 0.282857 0.0
-1.52143 0.33619 0.0
-1.49792 0 0.0
-1.49802 0.05 0.0
-1.49822 0.15 0.0
-1.49312 0.1 0.0
-1.5423 0.717143 0.0
-1.54419 0.767857 0.0
-1.54727 0.819048 0.0
-1.57122 0.861905 0.0
-1.53553 0.914286 0.0
-1.54992 1 0.0
-1.53563 0.964286 0.0
-1.49842 0.25 0.0
-1.48831 0.2 0.0
-1.5214 0.558929 0.0
-1.49891 0.5 0.0
-1.49871 0.4 0.0
-1.47631 0.45 0.0
-1.49911 0.6 0.0
-1.49921 0.65 0.0
-1.49931 0.7 0.0
-1.48111 0.35 0.0
-1.48351 0.3 0.0
-1.44771 0 0.0
-1.44782 0.05 0.0
-1.44804 0.15 0.0
-1.44793 0.1 0.0
-1.49941 0.75 0.0
-1.49951 0.8 0.0
-1.49981 0.95 0.0
-1.49961 0.85 0.0
-1.49971 0.9 0.0
-1.49991 1 0.0
-1.44826 0.25 0.0
-1.43815 0.2 0.0
-1.47151 0.55 0.0
-1.44881 0.5 0.0
-1.44859 0.4 0.0
-1.42619 0.45 0.0
-1.44913 0.65 0.0
-1.44902 0.6 0.0
-1.44935 0.75 0.0
-1.44924 0.7 0.0
-1.43972 0.35 0.0
-1.43336 0.3 0.0
-1.3975 0 0.0
-1.39762 0.05 0.0
-1.39786 0.15 0.0
-1.39274 0.1 0.0
-1.44957 0.85 0.0
-1.44946 0.8 0.0
-1.4523 0.95 0.0
-1.44968 0.9 0.0
-1.4499 1 0.0
-1.3981 0.25 0.0
-1.38798 0.2 0.0
-1.42141 0.55 0.0
-1.3987 0.5 0.0
-1.39834 0.35 0.0
-1.37845 0.4 0.0
-1.37607 0.45 0.0
-1.40784 0.65 0.0
-1.39894 0.6 0.0
-1.41185 0.75 0.0
-1.39918 0.7 0.0
-1.38322 0.3 0.0
-1.34729 0 0.0
-1.34492 0.05 0.0
-1.34018 0.15 0.0
-1.34255 0.1 0.0
-1.40707 0.85 0.0
-1.39941 0.8 0.0
-1.39977 0.95 0.0
-1.39965 0.9 0.0
-1.39989 1 0.0
-1.33781 0.2 0.0
-1.33544 0.25 0.0
-1.37131 0.55 0.0
-1.34859 0.5 0.0
-1.33833 0.4 0.0
-1.3307 0.35 0.0
-1.32595 0.45 0.0
-1.34885 0.6 0.0
-1.36655 0.65 0.0
-1.36179 0.75 0.0
-1.34911 0.7 0.0
-1.33307 0.3 0.0
-1.29708 0 0.0
-1.29722 0.05 0.0
-1.2975 0.15 0.0
-1.29236 0.1 0.0
-1.35703 0.85 0.0
-1.34937 0.8 0.0
-1.34988 1 0.0
-1.34962 0.9 0.0
-1.35226 0.95 0.0
-1.28528 0.25 0.0
-1.28764 0.2 0.0
-1.28931 0.35 0.0
-1.32121 0.55 0.0
-1.29848 0.5 0.0
-1.28709 0.45 0.0
-1.2982 0.4 0.0
-1.29876 0.6 0.0
-1.31647 0.65 0.0
-1.29918 0.75 0.0
-1.29904 0.7 0.0
-1.28292 0.3 0.0
-1.24687 0 0.0
-1.24702 0.05 0.0
-1.24717 0.1 0.0
-1.24732 0.15 0.0
-1.29946 0.85 0.0
-1.29932 0.8 0.0
-1.29987 1 0.0
-1.29974 0.95 0.0
-1.30462 0.9 0.0
-1.24762 0.25 0.0
-1.23747 0.2 0.0
-1.24792 0.35 0.0
-1.22807 0.4 0.0
-1.27111 0.55 0.0
-1.24837 0.5 0.0
-1.24822 0.45 0.0
-1.24867 0.6 0.0
-1.26639 0.65 0.0
-1.26167 0.75 0.0
-1.24897 0.7 0.0
-1.23277 0.3 0.0
-1.19667 0 0.0
-1.19683 0.05 0.0
-1.18964 0.15 0.0
-1.19198 0.1 0.0
-1.25695 0.85 0.0
-1.24927 0.8 0.0
-1.25223 0.95 0.0
-1.24987 1 0.0
-1.24957 0.9 0.0
-1.1873 0.2 0.0
-1.18496 0.25 0.0
-1.18028 0.35 0.0
-1.17794 0.4 0.0
-1.1981 0.45 0.0
-1.19842 0.55 0.0
-1.19826 0.5 0.0
-1.19858 0.6 0.0
-1.19874 0.65 0.0
-1.19906 0.75 0.0
-1.1989 0.7 0.0
-1.18262 0.3 0.0
-1.14646 0 0.0
-1.14663 0.05 0.0
-1.1418 0.1 0.0
-1.13713 0.2 0.0
-1.14697 0.15 0.0
-1.20691 0.85 0.0
-1.20926 0.8 0.0
-1.20221 0.95 0.0
-1.19986 1 0.0
-1.20456 0.9 0.0
-1.13997 0.3 0.0
-1.14731 0.25 0.0
-1.13781 0.4 0.0
-1.13014 0.35 0.0
-1.12548 0.45 0.0
-1.14815 0.5 0.0
-1.15962 0.55 0.0
-1.14849 0.6 0.0
-1.15745 0.65 0.0
-1.16155 0.75 0.0
-1.14917 0.8 0.0
-1.14883 0.7 0.0
-1.09625 0 0.0
-1.09661 0.1 0.0
-1.09393 0.05 0.0
-1.09697 0.2 0.0
-1.08929 0.15 0.0
-1.15687 0.85 0.0
-1.14985 1 0.0
-1.15219 0.95 0.0
-1.14951 0.9 0.0
-1.09733 0.3 0.0
-1.08465 0.25 0.0
-1.09769 0.4 0.0
-1.08 0.35 0.0
-1.08661 0.45 0.0
-1.09804 0.5 0.0
-1.12082 0.55 0.0
-1.10916 0.8 0.0
-1.10629 0.7 0.0
-1.0984 0.6 0.0
-1.11616 0.65 0.0
-1.11149 0.75 0.0
-1.04604 0 0.0
-1.04623 0.05 0.0
-1.04642 0.1 0.0
-1.0468 0.2 0.0
-1.03911 0.15 0.0
-1.09948 0.9 0.0
-1.0993 0.85 0.0
-1.09984 1 0.0
-1.09966 0.95 0.0
-1.04718 0.3 0.0
-1.03449 0.25 0.0
-1.04756 0.4 0.0
-1.02986 0.35 0.0
-1.04775 0.45 0.0
-1.04794 0.5 0.0
-1.04813 0.55 0.0
-1.05911 0.8 0.0
-1.04831 0.6 0.0
-1.06376 0.7 0.0
-1.0485 0.65 0.0
-1.04888 0.75 0.0
-0.995833 0 0.0
-0.991231 0.1 0.0
-0.996033 0.05 0.0
-0.986629 0.2 0.0
-0.98893 0.15 0.0
-1.05447 0.9 0.0
-1.04926 0.85 0.0
-1.04983 1 0.0
-1.04964 0.95 0.0
-0.984328 0.25 0.0
-0.99703 0.3 0.0
-0.997429 0.4 0.0
-0.997628 0.45 0.0
-0.979726 0.35 0.0
-0.997827 0.5 0.0
-0.998027 0.55 0.0
-0.998226 0.6 0.0
-0.961416 0.475 0.0
-1.00907 0.8 0.0
-0.998426 0.65 0.0
-0.998625 0.7 0.0
-1.01138 0.75 0.0
-0.945625 0 0.0
-0.946044 0.1 0.0
-0.943334 0.05 0.0
-0.946463 0.2 0.0
-0.938752 0.15 0.0
-1.00444 0.9 0.0
-1.00675 0.85 0.0
-0.999821 1 0.0
-1.00213 0.95 0.0
-0.93417 0.25 0.0
-0.946881 0.3 0.0
-0.9473 0.4 0.0
-0.929588 0.35 0.0
-0.925005 0.45 0.0
-0.960371 0.525 0.0
-0.959325 0.575 0.0
-0.958279 0.625 0.0
-0.922714 0.5 0.0
-0.959017 0.8 0.0
-0.957233 0.675 0.0
-0.952999 0.7125 0.0
-0.948766 0.75 0.0
-0.895417 0 0.0
-0.895855 0.1 0.0
-0.893136 0.05 0.0
-0.896294 0.2 0.0
-0.888573 0.15 0.0
-0.949184 0.85 0.0
-0.954415 0.9 0.0
-0.949812 1 0.0
-0.949603 0.95 0.0
-0.884011 0.25 0.0
-0.896733 0.3 0.0
-0.874887 0.45 0.0
-0.879449 0.35 0.0
-0.897171 0.4 0.0
-0.920423 0.55 0.0
-0.918132 0.6 0.0
-0.915841 0.65 0.0
-0.872606 0.5 0.0
-0.908968 0.8 0.0
-0.91355 0.7 0.0
-0.898707 0.75 0.0
-0.845208 0 0.0
-0.845438 0.05 0.0
-0.845667 0.1 0.0
-0.845896 0.15 0.0
-0.833853 0.25 0.0
-0.846126 0.2 0.0
-0.899146 0.85 0.0
-0.904386 0.9 0.0
-0.899584 0.95 0.0
-0.899804 1 0.0
-0.838062 0.35 0.0
[...]
POINT_DATA 10839
VECTORS Velocity float
0.21 0 0.0
0.24 0 0.0
0.2275 0 0.0
0.2475 0 0.0
0.25 0 0.0
0.2475 0 0.0
0 0 0.0
0.0475 0 0.0
0.1275 0 0.0
0.09 0 0.0
0.09 0 0.0
0.1275 0 0.0
0.1875 0 0.0
0.16 0 0.0
0.195568 -0.000105256 0.0
0.242829 -9.24151e-05 0.0
0.215776 -0.000129382 0.0
0.231399 -0.000128045 0.0
0.248705 -4.71699e-05 0.0
0.24 0 0.0
0.242828 6.01155e-05 0.0
0.248501 1.1859e-05 0.0
0 0 0.0
0.0622174 3.04349e-05 0.0
0.0321653 6.16343e-05 0.0
0.16 0 0.0
0.1875 0 0.0
0.21 0 0.0
0.2275 0 0.0
0.193607 9.13508e-05 0.0
0.138905 -2.6715e-06 0.0
0 0 0.0
0.0475 0 0.0
0.0998484 -5.25078e-05 0.0
0.0622146 -3.44051e-05 0.0
0.0998588 3.68144e-05 0.0
0.138906 -1.21584e-05 0.0
0.174426 -0.000144695 0.0
0.201635 -0.000264518 0.0
0.235748 -0.000250928 0.0
0.244028 -0.000189662 0.0
0.223577 -0.000451984 0.0
0.249672 -6.40654e-05 0.0
0.248958 3.88731e-05 0.0
0.231396 9.38943e-05 0.0
0.244027 0.000129695 0.0
0 0 0.0
0.0357585 0.000208658 0.0
0.0735513 0.000308797 0.0
0.061917 0.000483548 0.0
0.17442 0.000103922 0.0
0.220161 0.000199684 0.0
0.201634 0.000215931 0.0
0.115616 -0.000111919 0.0
0.146773 1.41445e-05 0.0
0 0 0.0
0.035994 -9.95888e-05 0.0
0.0693191 -0.000220904 0.0
0.0900574 -0.000380238 0.0
0.109548 0.000260026 0.0
0.146776 -5.30785e-05 0.0
0.179048 -0.000318314 0.0
0.206348 -0.000515826 0.0
0.214514 -0.000774052 0.0
0.238408 -0.000419177 0.0
0.247178 -0.00024553 0.0
0.229459 -0.000759666 0.0
0.22629 0.000395941 0.0
0.249799 -2.50595e-05 0.0
0.246272 0.000171647 0.0
0.236592 0.000316099 0.0
0 0 0.0
0.0314025 0.000206253 0.0
0.0959321 0.000485181 0.0
0.0691031 0.000211227 0.0
0.179032 0.000246969 0.0
0.206325 0.000432685 0.0
0.127867 -0.00020327 0.0
0.166306 0.000332551 0.0
0.152615 8.49541e-05 0.0
0 0 0.0
0.0357447 -0.000213799 0.0
0.0618941 -0.000499186 0.0
0.0959062 -0.000514356 0.0
0.127898 0.000158131 0.0
0.157052 -0.00026151 0.0
0.116288 0.000183487 0.0
0.193922 -0.000959486 0.0
0.218074 -0.00122118 0.0
0.24067 -0.000590442 0.0
0.247394 -0.000351833 0.0
0.249632 -6.78967e-05 0.0
0.234 -0.00113109 0.0
0.229454 0.000627138 0.0
0.247393 0.000214253 0.0
0.240659 0.000466236 0.0
0 0 0.0
0.0334181 1.1939e-05 0.0
0.103827 -0.000181076 0.0
0.0621069 -0.000627936 0.0
0.189993 0.000631791 0.0
0.21305 0.00100958 0.0
0.171255 0.000800339 0.0
0.145227 0.000239246 0.0
0 0 0.0
0.0390773 -0.000275258 0.0
0.100411 -0.00014275 0.0
0.0690433 -0.000257824 0.0
0.171338 -0.0009087 0.0
0.145269 -0.000349833 0.0
0.125639 -0.00110609 0.0
0.184306 -0.00152414 0.0
0.204326 -0.00180749 0.0
0.221723 -0.00189476 0.0
0.248418 0.000187915 0.0
0.243432 -0.000795554 0.0
0.248425 -0.000367998 0.0
0.237663 -0.00154117 0.0
0.233974 0.000972357 0.0
0.24417 0.0006689 0.0
0 0 0.0
0.0319183 -0.000398559 0.0
0.0949349 -0.00165324 0.0
0.0665232 -0.00212576 0.0
0.197124 0.00148419 0.0
0.217727 0.00168352 0.0
0.178498 0.00214184 0.0
0.15002 0.00113329 0.0
0.121501 0.0005161 0.0
0 0 0.0
0.0333787 -3.32316e-05 0.0
0.0718377 0.000798135 0.0
0.153785 -0.00175634 0.0
0.129068 -0.003196 0.0
0.188309 -0.00261746 0.0
0.21179 -0.00289477 0.0
0.247401 0.00045281 0.0
0.224857 -0.00277381 0.0
0.248537 -0.000319295 0.0
0.245329 -0.000949021 0.0
0.240387 -0.00193029 0.0
0.237637 0.00131599 0.0
0 0 0.0
0.0354839 -0.000970409 0.0
0.102028 -0.00483742 0.0
0.0743948 -0.00438087 0.0
0.206403 0.00261445 0.0
0.22182 0.00256467 0.0
0.190603 0.004201 0.0
0.169575 0.00395909 0.0
0.14466 0.00365339 0.0
0.125701 0.00234193 0.0
0.0982744 0.00207774 0.0
0 0 0.0
0.035672 0.00045137 0.0
0.0690797 0.00240888 0.0
0.131848 -0.00633287 0.0
0.169692 -0.00408055 0.0
0.199605 -0.00408943 0.0
0.217503 -0.00398766 0.0
0.240353 0.00164122 0.0
0.247973 -0.000114529 0.0
0.246057 0.000814748 0.0
0.227327 -0.0038556 0.0
0.242073 -0.00222497 0.0
0.246449 -0.000970334 0.0
0.232873 0.00267926 0.0
0 0 0.0
0.0417192 -0.00166232 0.0
0.124824 -0.00978544 0.0
0.0807818 -0.00617196 0.0
0.208044 0.0042023 0.0
0.223538 0.00414249 0.0
0.197731 0.00626564 0.0
0.178357 0.00641107 0.0
0.147848 0.00675066 0.0
0.121049 0.00601057 0.0
0.0989726 0.00406253 0.0
0 0 0.0
0.036909 0.00105083 0.0
0.0716764 0.00390023 0.0
0.153099 -0.00875516 0.0
0.178416 -0.00687697 0.0
0.209125 -0.00561928 0.0
0.242054 0.00191972 0.0
0.246287 0.000531578 0.0
0.229004 -0.00513832 0.0
0.240066 -0.00312819 0.0
0.244953 -5.00658e-05 0.0
0.24554 -0.00111352 0.0
0.232983 0.00383955 0.0
0.209965 -0.00895848 0.0
0 0 0.0
0.0473722 -0.00210354 0.0
0.142084 -0.0131345 0.0
0.109872 -0.0115164 0.0
0.0824454 -0.00639088 0.0
0.212052 0.00618231 0.0
0.185895 0.0092821 0.0
0.165261 0.00992208 0.0
0.124766 0.00967798 0.0
0.0976447 0.00709947 0.0
0 0 0.0
0.0399772 0.00151583 0.0
0.0739675 0.00514946 0.0
0.165017 -0.0120107 0.0
0.185876 -0.0100429 0.0
0.157184 -0.0162235 0.0
0.242636 0.00200096 0.0
0.241996 0.00170547 0.0
0.226185 -0.00721648 0.0
0.234717 -0.00530607 0.0
0.242074 -0.00211365 0.0
0.235568 0.00420631 0.0
0.224768 0.00700307 0.0
0.195673 -0.012612 0.0
0.212939 -0.0113259 0.0
0 0 0.0
0.0490567 -0.0019625 0.0
0.132524 -0.01635 0.0
0.0892605 -0.00697814 0.0
0.114791 -0.0125688 0.0
0.204603 0.0107431 0.0
0.187317 0.0125485 0.0
0.166933 0.0139807 0.0
0.141918 0.0129345 0.0
0.10375 0.00980272 0.0
0 0 0.0
0.0425351 0.00171688 0.0
0.0820973 0.00630522 0.0
0.179453 -0.0166114 0.0
0.158095 -0.0193503 0.0
0.237509 0.00413772 0.0
0.240031 0.00103337 0.0
0.22787 -0.00852895 0.0
0.235846 -0.00529542 0.0
0.239851 -0.00203034 0.0
0.230648 0.0070487 0.0
0.211649 0.0124177 0.0
0.196537 -0.0164095 0.0
0.214564 -0.0132653 0.0
0 0 0.0
0.0708725 -0.00357508 0.0
0.137891 -0.0179685 0.0
0.114854 -0.0111614 0.0
0.197025 0.0149574 0.0
0.174584 0.0174163 0.0
0.148984 0.0177407 0.0
0.125171 0.0142986 0.0
0.098621 0.00875794 0.0
0 0 0.0
0.0486925 0.00194753 0.0
0.18124 -0.0205277 0.0
0.159647 -0.0215356 0.0
0.235499 0.00458017 0.0
0.236713 -0.000243203 0.0
0.22785 -0.00935054 0.0
0.232379 -0.00533796 0.0
0.227722 0.00883395 0.0
0.216496 0.0132262 0.0
0.200716 0.0172004 0.0
0.215114 -0.0147787 0.0
0.19989 -0.0187139 0.0
0 0 0.0
0.0771131 -0.00309646 0.0
0.143683 -0.0178509 0.0
0.122126 -0.0104937 0.0
0.180998 0.0201802 0.0
0.159028 0.0208087 0.0
0.0703781 0.00353265 0.0
0.137322 0.0178108 0.0
0.11336 0.0110848 0.0
0 0 0.0
0.179738 -0.0230394 0.0
0.161766 -0.0223679 0.0
0.23177 0.0049148 0.0
0.231528 -0.000287781 0.0
0.222937 -0.0114153 0.0
0.226797 -0.00634704 0.0
0.211873 0.0160377 0.0
0.222772 0.0108729 0.0
0.179348 0.0226559 0.0
0.197114 0.0202241 0.0
0.211256 -0.0169234 0.0
0.196399 -0.0212612 0.0
0 0 0.0
0.0826891 -0.00249788 0.0
0.150225 -0.016295 0.0
0.130605 -0.0089334 0.0
0.143224 0.0176113 0.0
0.160773 0.0220637 0.0
0.0762369 0.00309176 0.0
0.121427 0.0103395 0.0
0 0 0.0
0.179265 -0.0233839 0.0
0.165091 -0.0212337 0.0
0.226101 0.00584349 0.0
0.225413 -0.000328181 0.0
0.207361 -0.0181436 0.0
0.214927 -0.0130833 0.0
0.220504 -0.006934 0.0
0.207882 0.0174281 0.0
0.217094 0.0122032 0.0
0.178856 0.0230607 0.0
0.19388 0.0214116 0.0
0.193472 -0.0219268 0.0
0 0 0.0
0.0870763 -0.00203852 0.0
0.157675 -0.0133617 0.0
0.137366 -0.00717819 0.0
0.14859 0.016341 0.0
0.163804 0.0212424 0.0
0.081815 0.00250627 0.0
0.129102 0.00894661 0.0
0 0 0.0
0.169047 -0.0185686 0.0
0.180046 -0.0210143 0.0
0.219747 0.0062767 0.0
0.218726 -0.000376866 0.0
0.210376 -0.0129928 0.0
0.201397 -0.0176872 0.0
0.214036 -0.00691259 0.0
0.211286 0.012391 0.0
0.204094 0.0176677 0.0
0.179093 0.0217934 0.0
0.191465 0.0205841 0.0
0.191342 -0.0205826 0.0
0 0 0.0
0.0901065 -0.00152603 0.0
0.162716 -0.0109632 0.0
0.14289 -0.00541855 0.0
0.155029 0.0139278 0.0
0.167584 0.0188034 0.0
0 0 0.0
0.135866 0.00715554 0.0
0.0859165 0.00195383 0.0
0.181455 -0.0176836 0.0
0.173073 -0.0151636 0.0
0.198503 -0.0160479 0.0
0.213291 0.0060759 0.0
0.212147 -0.000427844 0.0
0.209317 -0.0064833 0.0
0.206144 -0.012185 0.0
0.205873 0.0113743 0.0
0.199943 0.0164476 0.0
0.180419 0.0179995 0.0
0.189858 0.0180981 0.0
0.190025 -0.0178085 0.0
0 0 0.0
0.0926726 -0.0010294 0.0
0.146729 -0.00404014 0.0
0.167615 -0.00826468 0.0
0.161795 0.0106104 0.0
0.171551 0.0154306 0.0
0 0 0.0
0.0893454 0.00141024 0.0
0.140826 0.00554719 0.0
0.182662 -0.0149184 0.0
0.176749 -0.0117083 0.0
0.19608 -0.0138343 0.0
0.199919 -0.00965651 0.0
0.207322 0.00530093 0.0
0.206231 -0.000511058 0.0
0.205048 -0.00580969 0.0
0.201245 0.00952324 0.0
0.196633 0.0139953 0.0
0.181577 0.0152091 0.0
0.188929 0.0146796 0.0
0.189362 -0.0144069 0.0
0 0 0.0
0.0944016 -0.000654721 0.0
0.172191 -0.00566771 0.0
0.150341 -0.0026823 0.0
0.166013 0.00825275 0.0
0.175182 0.0118543 0.0
0.0915306 0.00098271 0.0
0 0 0.0
0.145554 0.00378947 0.0
0.179772 -0.00866381 0.0
0.184473 -0.0105495 0.0
0.193265 -0.00999442 0.0
0.196701 -0.00763263 0.0
0.200502 -0.00478473 0.0
0.200274 0.00365275 0.0
0.201346 -0.00058708 0.0
0.19754 0.00732607 0.0
0.193344 0.00993215 0.0
0.183294 0.0105846 0.0
0.188445 0.0111103 0.0
0.189039 -0.011042 0.0
0 0 0.0
0.0956567 -0.000433298 0.0
0.152486 -0.00185182 0.0
0.182146 -0.00622938 0.0
0.174574 -0.00419546 0.0
0.169956 0.00581474 0.0
0.177683 0.00921519 0.0
0.0931025 0.000611948 0.0
0 0 0.0
0.148421 0.00263785 0.0
0.188969 -0.00858829 0.0
0.185515 -0.00837988 0.0
0.194696 -0.00615912 0.0
0.191929 -0.00751692 0.0
0.195704 -0.00345979 0.0
0.197555 -0.000684075 0.0
0.197509 0.00274431 0.0
0.19474 0.00522672 0.0
0.192005 0.00758753 0.0
0.184271 0.00818511 0.0
0.180624 0.00591097 0.0
0.188186 0.00792444 0.0
0 0 0.0
0.153998 -0.00130451 0.0
0.0963764 -0.000335513 0.0
0.183697 -0.00473387 0.0
0.177044 -0.00280108 0.0
0.172883 0.00388121 0.0
0 0 0.0
0.0940967 0.000331514 0.0
0.150778 0.00158477 0.0
0.188987 -0.00659216 0.0
0.186772 -0.00560682 0.0
0.193197 -0.00495788 0.0
0.191004 -0.00558703 0.0
0.193993 -0.00291305 0.0
0.194804 -0.000789868 0.0
0.195262 0.00191642 0.0
0.182038 0.00422603 0.0
0.188101 0.00568444 0.0
0.192739 0.00344826 0.0
0.19095 0.00555506 0.0
0.185235 0.00554248 0.0
0 0 0.0
0.0967349 -0.000225609 0.0
0.155112 -0.000926671 0.0
0.185095 -0.00340037 0.0
0.178539 -0.00200788 0.0
0.152091 0.000924676 0.0
0.175154 0.00228446 0.0
0 0 0.0
0.0948196 0.000141136 0.0
0.189074 -0.0048378 0.0
0.187602 -0.00409754 0.0
0.191848 -0.00379688 0.0
0.190423 -0.00421199 0.0
0.192638 -0.00250396 0.0
0.192821 -0.000930271 0.0
0.19235 0.000664327 0.0
0.183322 0.00261465 0.0
0.191294 0.00203927 0.0
0.188019 0.00389438 0.0
0.189768 0.00298877 0.0
0.186109 0.00313722 0.0
0 0 0.0
0.155985 -0.000687059 0.0
0.0973435 -0.000154961 0.0
0.186308 -0.00237997 0.0
0.179615 -0.00152031 0.0
0.152902 0.000494004 0.0
0.17649 0.00131913 0.0
0 0 0.0
0.0948837 9.30746e-05 0.0
0.188215 -0.00309605 0.0
0.189187 -0.0036489 0.0
0.190953 -0.00302775 0.0
0.191418 -0.00215629 0.0
0.19006 -0.00328755 0.0
0.191475 -0.00108549 0.0
0.191097 8.94842e-06 0.0
0.190301 0.000970389 0.0
0.190823 -0.00163016 0.0
0.184211 0.0014687 0.0
0.189211 0.00163422 0.0
0.187941 0.00191634 0.0
0.186453 0.00208413 0.0
0 0 0.0
0.156576 -0.000599769 0.0
0.097637 -0.000193331 0.0
0.18694 -0.00198212 0.0
0.180416 -0.00124519 0.0
0.15341 0.000162339 0.0
0.177222 0.000729238 0.0
0 0 0.0
0.0950549 -1.30891e-05 0.0
0.188709 -0.00247313 0.0
0.189335 -0.00289135 0.0
0.190355 -0.00255762 0.0
0.189862 -0.00273211 0.0
0.190324 -0.00196433 0.0
0.190612 -0.000802675 0.0
0.190091 -2.66608e-05 0.0
0.189313 0.0005857 0.0
0.190209 -0.00137413 0.0
0.184739 0.000653369 0.0
0.188378 0.000943593 0.0
0.187624 0.000950252 0.0
0.186805 0.000813636 0.0
0 0 0.0
0.157071 -0.000578104 0.0
0.0979223 -0.000184044 0.0
0.18755 -0.00169664 0.0
0.181048 -0.0011251 0.0
0.177803 0.000170689 0.0
0.153657 -7.1486e-05 0.0
0 0 0.0
0.0951679 -9.92611e-05 0.0
0.189116 -0.00213512 0.0
0.189487 -0.00245981 0.0
0.189866 -0.00199018 0.0
0.189771 -0.00244385 0.0
0.189997 -0.0023266 0.0
0.18985 -0.00076975 0.0
0.189284 -0.000248294 0.0
0.188578 0.000119036 0.0
0.189684 -0.00160252 0.0
0.185043 7.56585e-05 0.0
0.187801 0.000288999 0.0
0.18692 0.000103429 0.0
0 0 0.0
0.0981006 -0.0002017 0.0
0.157571 -0.000601078 0.0
0.181535 -0.0011033 0.0
0.189469 -0.00200424 0.0
0.188043 -0.00158696 0.0
0.178029 -0.00017417 0.0
0.15369 -0.000211177 0.0
0.0949223 -8.75655e-05 0.0
0 0 0.0
0.189758 -0.00236341 0.0
0.189662 -0.00227396 0.0
0.189633 -0.00208795 0.0
0.189776 -0.00228346 0.0
0.188296 -0.000525483 0.0
0.18934 -0.001188 0.0
0.18886 -0.000811586 0.0
0.18933 -0.00187004 0.0
0.186936 -0.000432596 0.0
0.185148 -0.000429495 0.0
0.187645 -0.000522327 0.0
0 0 0.0
0.0985733 -0.00021854 0.0
0.158057 -0.000661575 0.0
0.182009 -0.00113695 0.0
0.189734 -0.00200964 0.0
0.188611 -0.00164027 0.0
0.178035 -0.000431196 0.0
0.153581 -0.000334514 0.0
0.094717 -0.00012478 0.0
0 0 0.0
0.178047 -0.00064548 0.0
0.189781 -0.00238408 0.0
0.189902 -0.00230509 0.0
0.189629 -0.00245604 0.0
0.189465 -0.00223887 0.0
0.187973 -0.00121233 0.0
0.188539 -0.00128988 0.0
0.188975 -0.00157963 0.0
0.189073 -0.00218245 0.0
0.186874 -0.000861433 0.0
0.185139 -0.000755952 0.0
0.187487 -0.00101058 0.0
0 0 0.0
0.0989889 -0.000224321 0.0
0.158599 -0.000761145 0.0
0.182501 -0.00127029 0.0
0.190062 -0.00212751 0.0
0.189048 -0.00179458 0.0
0.0943715 -0.000150423 0.0
0.153424 -0.000436863 0.0
0 0 0.0
0.17782 -0.000798206 0.0
0.189858 -0.00256006 0.0
0.190121 -0.0024871 0.0
0.189604 -0.0027166 0.0
0.189313 -0.00251823 0.0
0.187777 -0.00158326 0.0
0.188273 -0.00172568 0.0
0.188884 -0.00254932 0.0
0.188588 -0.00214633 0.0
0.186749 -0.00113656 0.0
0.184988 -0.00103914 0.0
0.187295 -0.00143036 0.0
0 0 0.0
0.0995365 -0.000277244 0.0
0.1591 -0.000906682 0.0
0.183068 -0.00148976 0.0
0.190484 -0.00243799 0.0
0.190356 -0.00279556 0.0
0.1895 -0.00205094 0.0
0.0942063 -0.000191871 0.0
0.153067 -0.0005393 0.0
0 0 0.0
0.177561 -0.000969752 0.0
0.190005 -0.00296732 0.0
0.189609 -0.00300626 0.0
0.189216 -0.00288291 0.0
0.188759 -0.00286647 0.0
0.18758 -0.00193289 0.0
0.188019 -0.0021608 0.0
0.188367 -0.00256783 0.0
0.184806 -0.00130302 0.0
0.186545 -0.00147914 0.0
0.187056 -0.00182091 0.0
0 0 0.0
0.100055 -0.000408523 0.0
0.159852 -0.00109374 0.0
0.183699 -0.00178353 0.0
0.190776 -0.00272052 0.0
0.190608 -0.00320107 0.0
0.189996 -0.00238858 0.0
0.0938843 -0.000248746 0.0
0.152722 -0.000630433 0.0
0 0 0.0
0.184499 -0.00150066 0.0
0.152203 -0.000712437 0.0
0.177074 -0.00116633 0.0
0.190152 -0.00343588 0.0
0.189625 -0.00334302 0.0
0.189112 -0.00356143 0.0
0.188652 -0.00321489 0.0
0.188206 -0.0029269 0.0
0.187322 -0.00235238 0.0
0.187682 -0.00279059 0.0
0.186184 -0.00188299 0.0
0.186825 -0.00215761 0.0
0.190296 -0.00388384 0.0
0 0 0.0
0.100749 -0.000484909 0.0
0.184442 -0.00214182 0.0
0.160683 -0.0013527 0.0
0.190907 -0.00375385 0.0
0.191276 -0.00331682 0.0
0.190517 -0.0028369 0.0
0.0935601 -0.00027604 0.0
0 0 0.0
0.185937 -0.00213966 0.0
0.184148 -0.00175739 0.0
0.176737 -0.0013548 0.0
0.0929063 -0.0002502 0.0
0.151807 -0.000819617 0.0
0.189674 -0.00388882 0.0
0.189061 -0.00400968 0.0
0.188492 -0.00375183 0.0
0.188372 -0.00421827 0.0
0.188032 -0.00331431 0.0
0.187017 -0.00279948 0.0
0.187392 -0.00328788 0.0
0.186538 -0.00248828 0.0
0.190418 -0.00441937 0.0
0.101489 -0.00060582 0.0
0 0 0.0
0.185041 -0.00250843 0.0
0.161587 -0.00164861 0.0
0.191217 -0.00443127 0.0
0.191626 -0.00378304 0.0
0.191142 -0.00339922 0.0
0 0 0.0
0.185516 -0.00247864 0.0
0.183546 -0.00208053 0.0
0.176178 -0.00150902 0.0
0.0925142 -0.000290894 0.0
0.151149 -0.000928435 0.0
0.189727 -0.00484518 0.0
0.189012 -0.00451077 0.0
0.188223 -0.00472561 0.0
0.187686 -0.00412965 0.0
0.186675 -0.00327063 0.0
0.187083 -0.00383335 0.0
0.186035 -0.00304008 0.0
0.190619 -0.00521769 0.0
0 0 0.0
0.102662 -0.000724445 0.0
0.185928 -0.00305612 0.0
0.162638 -0.0019918 0.0
0.19181 -0.00409661 0.0
0.191564 -0.00527233 0.0
0.192257 -0.00471267 0.0
0 0 0.0
0 0 0.0
0.185022 -0.00285546 0.0
0.183068 -0.0023821 0.0
0.175634 -0.00170505 0.0
0.150469 -0.00103572 0.0
0.0919815 -0.000356442 0.0
0.189751 -0.00569089 0.0
0.188905 -0.00527884 0.0
0.186788 -0.0043103 0.0
0.187998 -0.00549511 0.0
0.187375 -0.0048064 0.0
0.186264 -0.00379392 0.0
0.185546 -0.00349877 0.0
0.189747 -0.00648734 0.0
0.19077 -0.00618042 0.0
0.104076 -0.00087851 0.0
0.163906 -0.00242176 0.0
0.186994 -0.0037491 0.0
0.192495 -0.00478179 0.0
0.191937 -0.00627851 0.0
0.192679 -0.0054589 0.0
0 0 0.0
0 0 0.0
0.182491 -0.00262325 0.0
0.184268 -0.00334968 0.0
0.149708 -0.00113927 0.0
0.174762 -0.00194761 0.0
0.0913493 -0.000387964 0.0
0.188704 -0.00658131 0.0
0.187691 -0.00638983 0.0
0.184994 -0.00400155 0.0
0.186445 -0.00482576 0.0
0.187101 -0.00539171 0.0
0.185595 -0.00457589 0.0
0.18972 -0.00735722 0.0
0.191005 -0.00778361 0.0
0.192308 -0.00752767 0.0
0.105655 -0.00115263 0.0
0.165638 -0.00300185 0.0
0.188428 -0.0048186 0.0
0.193369 -0.0057875 0.0
0.193455 -0.00692245 0.0
0 0 0.0
0 0 0.0
0.181603 -0.00301552 0.0
0.183581 -0.00379797 0.0
0.148818 -0.00128123 0.0
0.173942 -0.00217896 0.0
0.0906227 -0.000427378 0.0
0.186776 -0.00603118 0.0
0.187307 -0.0073874 0.0
0.188436 -0.00770464 0.0
0.184337 -0.00454315 0.0
0.185951 -0.00554774 0.0
0.184986 -0.00524125 0.0
0.182783 -0.00427559 0.0
0.189532 -0.00920825 0.0
0 0 0.0
0.191047 -0.00928841 0.0
0.194136 -0.00840273 0.0
0.192649 -0.00900126 0.0
0.107664 -0.0014484 0.0
0.189838 -0.00580558 0.0
0.167992 -0.00392094 0.0
0.194597 -0.00745301 0.0
0 0 0.0
0 0 0.0
0 0 0.0
0 0 0.0
0 0 0.0
0.0898835 -0.000465465 0.0
0.173109 -0.00243437 0.0
0.180767 -0.00337843 0.0
0.147996 -0.00140002 0.0
0.186263 -0.00692725 0.0
0.186794 -0.0085289 0.0
0.188098 -0.0089769 0.0
0.1844 -0.00580887 0.0
0.183558 -0.00513441 0.0
0.185072 -0.00668387 0.0
0.182816 -0.00566755 0.0
0.18207 -0.00464624 0.0
0.189216 -0.0108213 0.0
0.191021 -0.0109773 0.0
0 0 0.0
-0.000507266 0.00026734 0.0
0 0 0.0
-0.000568367 0.00604925 0.0
0.192958 -0.0108294 0.0
0.194686 -0.00974227 0.0
0.11042 -0.00189964 0.0
0.191581 -0.00723744 0.0
0.17061 -0.00508097 0.0
0.195849 -0.00929478 0.0
0 0 0.0
0 0 0.0
0 0 0.0
-0.000434204 0.00453278 0.0
-0.000396275 0.00147948 0.0
-0.00117758 0.00123715 0.0
0 0 0.0
0.0890425 -0.000504625 0.0
0.172165 -0.00264848 0.0
0.17979 -0.00376054 0.0
0.146777 -0.00155562 0.0
0.185638 -0.00794124 0.0
0.186135 -0.00980446 0.0
0.187597 -0.0104119 0.0
0.183724 -0.0064319 0.0
0.184452 -0.00741939 0.0
0.181963 -0.00621978 0.0
0.180759 -0.0053023 0.0
0.188757 -0.0126276 0.0
0.190322 -0.0127898 0.0
0.191987 -0.0127303 0.0
0 0 0.0
-0.00151076 0.000437395 0.0
0 0 0.0
0 0 0.0
-0.00189524 0.00920615 0.0
-0.00169362 0.00712375 0.0
0.193662 -0.0125576 0.0
0.195352 -0.0119537 0.0
0.173458 -0.00648123 0.0
0.113725 -0.00254691 0.0
0.193679 -0.00918863 0.0
0.197087 -0.0116409 0.0
0 0 0.0
-0.00112718 0.00379505 0.0
-0.00135917 0.00537859 0.0
-0.00154404 0.00264136 0.0
-0.00257959 0.00151361 0.0
0 0 0.0
0.0881243 -0.000545099 0.0
0.171023 -0.002906 0.0
0.178664 -0.00414468 0.0
0.145587 -0.0016922 0.0
0.184855 -0.0090514 0.0
0.185295 -0.0111956 0.0
0.1869 -0.0120257 0.0
0.182431 -0.00753044 0.0
0.183737 -0.00818316 0.0
0.180817 -0.00691157 0.0
0.177492 -0.00455335 0.0
0.179564 -0.00585014 0.0
0.188193 -0.0142441 0.0
0.190551 -0.0145409 0.0
0.193124 -0.014856 0.0
0 0 0.0
-0.00283666 0.000432691 0.0
0 0 0.0
0 0 0.0
0 0 0.0
0 0 0.0
-0.00283701 0.00567557 0.0
-0.00086174 0.00960637 0.0
-0.00222882 0.0111848 0.0
-0.00404652 0.00989504 0.0
-0.00309717 0.00792069 0.0
0 0 0.0
-0.00105439 0.0197171 0.0
0.195959 -0.0154852 0.0
0.198115 -0.0139796 0.0
0 0 0.0
0.118614 -0.00363421 0.0
0.177461 -0.00843153 0.0
0.196554 -0.0125298 0.0
0 0 0.0
0 0 0.0
-0.00252539 0.0043203 0.0
-0.0030128 0.00275834 0.0
-0.00390624 0.0012586 0.0
0 0 0.0
0.0870832 -0.0005871 0.0
0.169564 -0.00320421 0.0
0.144248 -0.00182308 0.0
0.176338 -0.00485726 0.0
0.183894 -0.0102555 0.0
0.184511 -0.0123223 0.0
0.185975 -0.0138232 0.0
0.181467 -0.00823491 0.0
0.182687 -0.00920038 0.0
0.179523 -0.00761539 0.0
0.178525 -0.00625153 0.0
0.1915 -0.0164619 0.0
0.187426 -0.0160115 0.0
0.189612 -0.01803 0.0
0.19271 -0.0187588 0.0
0.196186 -0.0192023 0.0
0 0 0.0
-0.0035602 0.000285294 0.0
-0.00124541 0.0177109 0.0
-0.00382257 0.0217941 0.0
-0.00109453 0.0123071 0.0
-0.0039064 0.00541985 0.0
-0.00423928 0.00279362 0.0
-0.00331932 0.0149745 0.0
-0.005319 0.012362 0.0
-0.00570627 0.00750845 0.0