# vtk DataFile Version 3.0
Mesh NS-CD Problem
ASCII
DATASET UNSTRUCTURED_GRID
POINTS 10839 float
-2 0.3 0.0
-2 0.4 0.0
-2 0.35 0.0
-2 0.45 0.0
-2 0.5 0.0
-2 0.55 0.0
-2 0 0.0
-2 0.05 0.0
-2 0.85 0.0
-2 0.9 0.0
-2 0.1 0.0
-2 0.15 0.0
-2 0.25 0.0
-2 0.2 0.0
-1.96653 0.266667 0.0
-1.96524 0.415385 0.0
-1.96485 0.315 0.0
-1.96348 0.363636 0.0
-1.96414 0.464286 0.0
-2 0.6 0.0
-1.96538 0.584615 0.0
-1.96538 0.538462 0.0
-1.94979 0 0.0
-1.96653 0.0666666 0.0
-1.93306 0.0333333 0.0
-2 0.8 0.0
-2 0.75 0.0
-2 0.7 0.0
-2 0.65 0.0
-1.96249 0.7375 0.0
-1.96666 0.833333 0.0
-2 1 0.0
-2 0.95 0.0
-1.96249 0.8875 0.0
-1.96666 0.933333 0.0
-1.96234 0.1125 0.0
-1.96653 0.166667 0.0
-1.93724 0.225 0.0
-1.92971 0.28 0.0
-1.93048 0.380769 0.0
-1.93048 0.423077 0.0
-1.89958 0.3375 0.0
-1.9292 0.484203 0.0
-1.92117 0.530907 0.0
-1.96363 0.636364 0.0
-1.93076 0.576923 0.0
-1.89958 0 0.0
-1.88703 0.0375 0.0
-1.90963 0.08 0.0
-1.86611 0.0666666 0.0
-1.93749 0.775 0.0
-1.93635 0.672727 0.0
-1.92999 0.72 0.0
-1.93332 0.866667 0.0
-1.92856 0.821429 0.0
-1.94999 1 0.0
-1.92499 0.9625 0.0
-1.92499 0.925 0.0
-1.89998 0.9 0.0
-1.89958 0.125 0.0
-1.92827 0.178571 0.0
-1.89958 0.233333 0.0
-1.89045 0.290909 0.0
-1.86096 0.311538 0.0
-1.89241 0.392857 0.0
-1.89334 0.448489 0.0
-1.85655 0.357143 0.0
-1.89614 0.653846 0.0
-1.89427 0.504121 0.0
-1.8952 0.559753 0.0
-1.89614 0.615385 0.0
-1.84937 0 0.0
-1.83264 0.0333333 0.0
-1.85655 0.107143 0.0
-1.81172 0.075 0.0
-1.89998 0.766667 0.0
-1.89089 0.709091 0.0
-1.87498 0.85 0.0
-1.85998 0.79 0.0
-1.88748 0.8125 0.0
-1.89998 1 0.0
-1.88748 0.9625 0.0
-1.86664 0.933333 0.0
-1.85712 0.892857 0.0
-1.87448 0.15 0.0
-1.86611 0.194444 0.0
-1.83264 0.133333 0.0
-1.83264 0.2625 0.0
-1.82068 0.321429 0.0
-1.85664 0.404762 0.0
-1.85674 0.452381 0.0
-1.85683 0.5 0.0
-1.81184 0.375 0.0
-1.85712 0.642857 0.0
-1.85693 0.547619 0.0
-1.85702 0.595238 0.0
-1.79917 0 0.0
-1.78482 0.0357143 0.0
-1.79917 0.116667 0.0
-1.76569 0.0666666 0.0
-1.85452 0.745455 0.0
-1.82689 0.692308 0.0
-1.81815 0.781818 0.0
-1.82497 0.825 0.0
-1.84997 1 0.0
-1.8333 0.958333 0.0
-1.81247 0.8875 0.0
-1.81247 0.925 0.0
-1.81742 0.218182 0.0
-1.82427 0.175 0.0
-1.77634 0.145455 0.0
-1.79144 0.242308 0.0
-1.78482 0.285714 0.0
-1.77469 0.332653 0.0
-1.81215 0.529762 0.0
-1.81194 0.422619 0.0
-1.81203 0.470238 0.0
-1.76714 0.392857 0.0
-1.81234 0.625 0.0
-1.79732 0.571429 0.0
-1.74896 0 0.0
-1.73222 0.0333333 0.0
-1.75398 0.105 0.0
-1.71883 0.07 0.0
-1.79227 0.730769 0.0
-1.78007 0.679121 0.0
-1.75765 0.769231 0.0
-1.78178 0.818182 0.0
-1.78996 0.86 0.0
-1.79996 1 0.0
-1.78568 0.964286 0.0
-1.76663 0.922222 0.0
-1.76569 0.1875 0.0
-1.73222 0.15 0.0
-1.74896 0.25 0.0
-1.73714 0.304762 0.0
-1.76743 0.537202 0.0
-1.72869 0.343878 0.0
-1.76732 0.485119 0.0
-1.76723 0.440476 0.0
-1.72243 0.410714 0.0
-1.76757 0.607143 0.0
-1.69875 0 0.0
-1.68369 0.035 0.0
-1.69875 0.1125 0.0
-1.66528 0.075 0.0
-1.74341 0.708974 0.0
-1.73324 0.665934 0.0
-1.70441 0.74478 0.0
-1.71423 0.785714 0.0
-1.72303 0.826923 0.0
-1.74541 0.854545 0.0
-1.74541 0.890909 0.0
-1.74996 1 0.0
-1.73745 0.9625 0.0
-1.71359 0.927273 0.0
-1.68716 0.153846 0.0
-1.7131 0.214286 0.0
-1.70725 0.275 0.0
-1.69712 0.321939 0.0
-1.72279 0.589286 0.0
-1.72261 0.5 0.0
-1.7227 0.544643 0.0
-1.6827 0.355102 0.0
-1.67773 0.428571 0.0
-1.70763 0.464286 0.0
-1.70369 0.62449 0.0
-1.64854 0 0.0
-1.63181 0.0375 0.0
-1.64137 0.142857 0.0
-1.61764 0.0769231 0.0
-1.69458 0.703846 0.0
-1.67471 0.657437 0.0
-1.66143 0.727637 0.0
-1.67125 0.768571 0.0
-1.67851 0.821429 0.0
-1.68841 0.861538 0.0
-1.70904 0.890909 0.0
-1.69995 1 0.0
-1.68176 0.963636 0.0
-1.67267 0.927273 0.0
-1.65427 0.187143 0.0
-1.66718 0.231429 0.0
-1.66554 0.3 0.0
-1.67802 0.571429 0.0
-1.67792 0.523809 0.0
-1.6367 0.366327 0.0
-1.63682 0.423469 0.0
-1.62568 0.502976 0.0
-1.6629 0.470238 0.0
-1.65254 0.618367 0.0
-1.6059 0.307143 0.0
-1.59833 0 0.0
-1.58288 0.0384615 0.0
-1.60563 0.169643 0.0
-1.58179 0.112271 0.0
-1.56964 0.0714286 0.0
-1.64574 0.690385 0.0
-1.62827 0.751429 0.0
-1.63371 0.791071 0.0
-1.64279 0.857143 0.0
-1.65378 0.896154 0.0
-1.64994 1 0.0
-1.6363 0.963636 0.0
-1.61916 0.930769 0.0
-1.61345 0.209107 0.0
-1.62126 0.248571 0.0
-1.56989 0.196429 0.0
-1.63324 0.553571 0.0
-1.58846 0.535714 0.0
-1.59408 0.361905 0.0
-1.59161 0.402211 0.0
-1.58832 0.464286 0.0
-1.61504 0.598581 0.0
-1.59683 0.64359 0.0
-1.57899 0.274107 0.0
-1.56176 0.322381 0.0
-1.54812 0 0.0
-1.53378 0.0357143 0.0
-1.54593 0.147619 0.0
-1.53385 0.0732143 0.0
-1.53393 0.110714 0.0
-1.58522 0.704286 0.0
-1.58709 0.745 0.0
-1.58896 0.785714 0.0
-1.60695 0.830357 0.0
-1.60707 0.892857 0.0
-1.59993 1 0.0
-1.58454 0.965385 0.0
-1.57135 0.928571 0.0
-1.55209 0.241071 0.0
-1.5291 0.198214 0.0
-1.56936 0.570918 0.0
-1.54369 0.517857 0.0
-1.5464 0.380952 0.0
-1.54564 0.427721 0.0
-1.54488 0.47449 0.0
-1.55026 0.606122 0.0
-1.54222 0.677143 0.0
-1.52943 0.282857 0.0
-1.52143 0.33619 0.0
-1.49792 0 0.0
-1.49802 0.05 0.0
-1.49822 0.15 0.0
-1.49312 0.1 0.0
-1.5423 0.717143 0.0
-1.54419 0.767857 0.0
-1.54727 0.819048 0.0
-1.57122 0.861905 0.0
-1.53553 0.914286 0.0
-1.54992 1 0.0
-1.53563 0.964286 0.0
-1.49842 0.25 0.0
-1.48831 0.2 0.0
-1.5214 0.558929 0.0
-1.49891 0.5 0.0
-1.49871 0.4 0.0
-1.47631 0.45 0.0
-1.49911 0.6 0.0
-1.49921 0.65 0.0
-1.49931 0.7 0.0
-1.48111 0.35 0.0
-1.48351 0.3 0.0
-1.44771 0 0.0
-1.44782 0.05 0.0
-1.44804 0.15 0.0
-1.44793 0.1 0.0
-1.49941 0.75 0.0
-1.49951 0.8 0.0
-1.49981 0.95 0.0
-1.49961 0.85 0.0
-1.49971 0.9 0.0
-1.49991 1 0.0
-1.44826 0.25 0.0
-1.43815 0.2 0.0
-1.47151 0.55 0.0
-1.44881 0.5 0.0
-1.44859 0.4 0.0
-1.42619 0.45 0.0
-1.44913 0.65 0.0
-1.44902 0.6 0.0
-1.44935 0.75 0.0
-1.44924 0.7 0.0
-1.43972 0.35 0.0
-1.43336 0.3 0.0
-1.3975 0 0.0
-1.39762 0.05 0.0
-1.39786 0.15 0.0
-1.39274 0.1 0.0
-1.44957 0.85 0.0
-1.44946 0.8 0.0
-1.4523 0.95 0.0
-1.44968 0.9 0.0
-1.4499 1 0.0
-1.3981 0.25 0.0
-1.38798 0.2 0.0
-1.42141 0.55 0.0
-1.3987 0.5 0.0
-1.39834 0.35 0.0
-1.37845 0.4 0.0
-1.37607 0.45 0.0
-1.40784 0.65 0.0
-1.39894 0.6 0.0
-1.41185 0.75 0.0
-1.39918 0.7 0.0
-1.38322 0.3 0.0
-1.34729 0 0.0
-1.34492 0.05 0.0
-1.34018 0.15 0.0
-1.34255 0.1 0.0
-1.40707 0.85 0.0
-1.39941 0.8 0.0
-1.39977 0.95 0.0
-1.39965 0.9 0.0
-1.39989 1 0.0
-1.33781 0.2 0.0
-1.33544 0.25 0.0
-1.37131 0.55 0.0
-1.34859 0.5 0.0
-1.33833 0.4 0.0
-1.3307 0.35 0.0
-1.32595 0.45 0.0
-1.34885 0.6 0.0
-1.36655 0.65 0.0
-1.36179 0.75 0.0
-1.34911 0.7 0.0
-1.33307 0.3 0.0
-1.29708 0 0.0
-1.29722 0.05 0.0
-1.2975 0.15 0.0
-1.29236 0.1 0.0
-1.35703 0.85 0.0
-1.34937 0.8 0.0
-1.34988 1 0.0
-1.34962 0.9 0.0
-1.35226 0.95 0.0
-1.28528 0.25 0.0
-1.28764 0.2 0.0
-1.28931 0.35 0.0
-1.32121 0.55 0.0
-1.29848 0.5 0.0
-1.28709 0.45 0.0
-1.2982 0.4 0.0
-1.29876 0.6 0.0
-1.31647 0.65 0.0
-1.29918 0.75 0.0
-1.29904 0.7 0.0
-1.28292 0.3 0.0
-1.24687 0 0.0
-1.24702 0.05 0.0
-1.24717 0.1 0.0
-1.24732 0.15 0.0
-1.29946 0.85 0.0
-1.29932 0.8 0.0
-1.29987 1 0.0
-1.29974 0.95 0.0
-1.30462 0.9 0.0
-1.24762 0.25 0.0
-1.23747 0.2 0.0
-1.24792 0.35 0.0
-1.22807 0.4 0.0
-1.27111 0.55 0.0
-1.24837 0.5 0.0
-1.24822 0.45 0.0
-1.24867 0.6 0.0
-1.26639 0.65 0.0
-1.26167 0.75 0.0
-1.24897 0.7 0.0
-1.23277 0.3 0.0
-1.19667 0 0.0
-1.19683 0.05 0.0
-1.18964 0.15 0.0
-1.19198 0.1 0.0
-1.25695 0.85 0.0
-1.24927 0.8 0.0
-1.25223 0.95 0.0
-1.24987 1 0.0
-1.24957 0.9 0.0
-1.1873 0.2 0.0
-1.18496 0.25 0.0
-1.18028 0.35 0.0
-1.17794 0.4 0.0
-1.1981 0.45 0.0
-1.19842 0.55 0.0
-1.19826 0.5 0.0
-1.19858 0.6 0.0
-1.19874 0.65 0.0
-1.19906 0.75 0.0
-1.1989 0.7 0.0
-1.18262 0.3 0.0
-1.14646 0 0.0
-1.14663 0.05 0.0
-1.1418 0.1 0.0
-1.13713 0.2 0.0
-1.14697 0.15 0.0
-1.20691 0.85 0.0
-1.20926 0.8 0.0
-1.20221 0.95 0.0
-1.19986 1 0.0
-1.20456 0.9 0.0
-1.13997 0.3 0.0
-1.14731 0.25 0.0
-1.13781 0.4 0.0
-1.13014 0.35 0.0
-1.12548 0.45 0.0
-1.14815 0.5 0.0
-1.15962 0.55 0.0
-1.14849 0.6 0.0
-1.15745 0.65 0.0
-1.16155 0.75 0.0
-1.14917 0.8 0.0
-1.14883 0.7 0.0
-1.09625 0 0.0
-1.09661 0.1 0.0
-1.09393 0.05 0.0
-1.09697 0.2 0.0
-1.08929 0.15 0.0
-1.15687 0.85 0.0
-1.14985 1 0.0
-1.15219 0.95 0.0
-1.14951 0.9 0.0
-1.09733 0.3 0.0
-1.08465 0.25 0.0
-1.09769 0.4 0.0
-1.08 0.35 0.0
-1.08661 0.45 0.0
-1.09804 0.5 0.0
-1.12082 0.55 0.0
-1.10916 0.8 0.0
-1.10629 0.7 0.0
-1.0984 0.6 0.0
-1.11616 0.65 0.0
-1.11149 0.75 0.0
-1.04604 0 0.0
-1.04623 0.05 0.0
-1.04642 0.1 0.0
-1.0468 0.2 0.0
-1.03911 0.15 0.0
-1.09948 0.9 0.0
-1.0993 0.85 0.0
-1.09984 1 0.0
-1.09966 0.95 0.0
-1.04718 0.3 0.0
-1.03449 0.25 0.0
-1.04756 0.4 0.0
-1.02986 0.35 0.0
-1.04775 0.45 0.0
-1.04794 0.5 0.0
-1.04813 0.55 0.0
-1.05911 0.8 0.0
-1.04831 0.6 0.0
-1.06376 0.7 0.0
-1.0485 0.65 0.0
-1.04888 0.75 0.0
-0.995833 0 0.0
-0.991231 0.1 0.0
-0.996033 0.05 0.0
-0.986629 0.2 0.0
-0.98893 0.15 0.0
-1.05447 0.9 0.0
-1.04926 0.85 0.0
-1.04983 1 0.0
-1.04964 0.95 0.0
-0.984328 0.25 0.0
-0.99703 0.3 0.0
-0.997429 0.4 0.0
-0.997628 0.45 0.0
-0.979726 0.35 0.0
-0.997827 0.5 0.0
-0.998027 0.55 0.0
-0.998226 0.6 0.0
-0.961416 0.475 0.0
-1.00907 0.8 0.0
-0.998426 0.65 0.0
-0.998625 0.7 0.0
-1.01138 0.75 0.0
-0.945625 0 0.0
-0.946044 0.1 0.0
-0.943334 0.05 0.0
-0.946463 0.2 0.0
-0.938752 0.15 0.0
-1.00444 0.9 0.0
-1.00675 0.85 0.0
-0.999821 1 0.0
-1.00213 0.95 0.0
-0.93417 0.25 0.0
-0.946881 0.3 0.0
-0.9473 0.4 0.0
-0.929588 0.35 0.0
-0.925005 0.45 0.0
-0.960371 0.525 0.0
-0.959325 0.575 0.0
-0.958279 0.625 0.0
-0.922714 0.5 0.0
-0.959017 0.8 0.0
-0.957233 0.675 0.0
-0.952999 0.7125 0.0
-0.948766 0.75 0.0
-0.895417 0 0.0
-0.895855 0.1 0.0
-0.893136 0.05 0.0
-0.896294 0.2 0.0
-0.888573 0.15 0.0
-0.949184 0.85 0.0
-0.954415 0.9 0.0
-0.949812 1 0.0
-0.949603 0.95 0.0
-0.884011 0.25 0.0
-0.896733 0.3 0.0
-0.874887 0.45 0.0
-0.879449 0.35 0.0
-0.897171 0.4 0.0
-0.920423 0.55 0.0
-0.918132 0.6 0.0
-0.915841 0.65 0.0
-0.872606 0.5 0.0
-0.908968 0.8 0.0
-0.91355 0.7 0.0
-0.898707 0.75 0.0
-0.845208 0 0.0
-0.845438 0.05 0.0
-0.845667 0.1 0.0
-0.845896 0.15 0.0
-0.833853 0.25 0.0
-0.846126 0.2 0.0
-0.899146 0.85 0.0
-0.904386 0.9 0.0
-0.899584 0.95 0.0
-0.899804 1 0.0
-0.838062 0.35 0.0
[...]
POINT_DATA 10839
VECTORS Velocity float
0.21 0 0.0
0.24 0 0.0
0.2275 0 0.0
0.2475 0 0.0
0.25 0 0.0
0.2475 0 0.0
0 0 0.0
0.0475 0 0.0
0.1275 0 0.0
0.09 0 0.0
0.09 0 0.0
0.1275 0 0.0
0.1875 0 0.0
0.16 0 0.0
0.195561 -5.46251e-05 0.0
0.242835 -5.19723e-05 0.0
0.215776 -6.62456e-05 0.0
0.231403 -6.7135e-05 0.0
0.248716 -3.26839e-05 0.0
0.24 0 0.0
0.242835 1.56362e-05 0.0
0.248512 -5.96677e-06 0.0
0 0 0.0
0.0622226 -6.8131e-06 0.0
0.0322292 -3.69373e-07 0.0
0.16 0 0.0
0.1875 0 0.0
0.21 0 0.0
0.2275 0 0.0
0.193598 3.09983e-05 0.0
0.138893 2.4797e-06 0.0
0 0 0.0
0.0475 0 0.0
0.0998429 -4.94105e-06 0.0
0.0622203 1.93902e-06 0.0
0.0998485 -8.15984e-06 0.0
0.138894 -2.00279e-05 0.0
0.174395 -8.04381e-05 0.0
0.201616 -0.00013222 0.0
0.23577 -0.000131699 0.0
0.244059 -0.000106206 0.0
0.223591 -0.000224769 0.0
0.249715 -5.14758e-05 0.0
0.249006 -8.02905e-06 0.0
0.231401 3.0264e-05 0.0
0.244058 3.56849e-05 0.0
0 0 0.0
0.0360582 4.11891e-05 0.0
0.073597 4.33019e-05 0.0
0.0621642 0.000143728 0.0
0.174389 3.68176e-05 0.0
0.220163 6.91085e-05 0.0
0.201612 7.56732e-05 0.0
0.115565 -1.80562e-05 0.0
0.146707 1.01191e-05 0.0
0 0 0.0
0.0360885 -9.96561e-06 0.0
0.069362 -2.95698e-05 0.0
0.0900005 -8.51071e-05 0.0
0.109418 3.22797e-05 0.0
0.146715 -5.07386e-05 0.0
0.178953 -0.000160805 0.0
0.206315 -0.000247293 0.0
0.214508 -0.000368268 0.0
0.238475 -0.000217788 0.0
0.247273 -0.00014335 0.0
0.229545 -0.00037344 0.0
0.226313 0.000142385 0.0
0.2499 -4.50566e-05 0.0
0.246359 4.34905e-05 0.0
0.236645 0.000107891 0.0
0 0 0.0
0.0320133 9.98279e-05 0.0
0.0957465 0.000166069 0.0
0.0692517 0.000299652 0.0
0.178937 8.69935e-05 0.0
0.206297 0.000156182 0.0
0.127591 -6.45124e-05 0.0
0.166038 0.000107444 0.0
0.152424 2.94956e-05 0.0
0 0 0.0
0.0360407 -4.70933e-05 0.0
0.0621337 -0.000162107 0.0
0.0957102 -0.000204792 0.0
0.127623 1.31182e-05 0.0
0.156787 -0.000138127 0.0
0.115817 0.000135741 0.0
0.193749 -0.000430627 0.0
0.218122 -0.000571312 0.0
0.240821 -0.000306233 0.0
0.247584 -0.000203044 0.0
0.249835 -7.59489e-05 0.0
0.234229 -0.000555421 0.0
0.229533 0.000232286 0.0
0.24758 5.1492e-05 0.0
0.24081 0.000163665 0.0
0 0 0.0
0.0339533 0.000143874 0.0
0.103383 0.00024872 0.0
0.0618952 0.000247114 0.0
0.189846 0.000225319 0.0
0.213037 0.000382467 0.0
0.170844 0.000249986 0.0
0.144672 8.91578e-06 0.0
0 0 0.0
0.0396742 -0.000147482 0.0
0.100024 -0.000311854 0.0
0.0691918 -0.000331302 0.0
0.170907 -0.000365436 0.0
0.144725 -0.000104817 0.0
0.12497 -8.84053e-06 0.0
0.183952 -0.000621939 0.0
0.204247 -0.000798484 0.0
0.221927 -0.000883574 0.0
0.2488 2.64926e-05 0.0
0.243763 -0.000415247 0.0
0.248807 -0.000225432 0.0
0.238167 -0.000761685 0.0
0.234204 0.000374501 0.0
0.244573 0.000240615 0.0
0 0 0.0
0.0315161 7.31654e-05 0.0
0.0943592 0.000121007 0.0
0.0649002 -7.79827e-05 0.0
0.196927 0.000545695 0.0
0.217858 0.000662576 0.0
0.178027 0.00068658 0.0
0.149332 0.000182052 0.0
0.12087 -0.000167941 0.0
0 0 0.0
0.0339063 -0.000154067 0.0
0.0714975 -0.000293089 0.0
0.153106 -0.000446716 0.0
0.128575 -0.000462875 0.0
0.188002 -0.00103268 0.0
0.211963 -0.00128727 0.0
0.248065 0.000137409 0.0
0.225375 -0.0012963 0.0
0.249218 -0.000218476 0.0
0.245959 -0.000504331 0.0
0.241324 -0.000967358 0.0
0.238136 0.000524116 0.0
0 0 0.0
0.033194 -0.00010487 0.0
0.100748 -0.000765613 0.0
0.0700174 -0.000981616 0.0
0.206444 0.00101038 0.0
0.222238 0.00104761 0.0
0.190605 0.00147933 0.0
0.169279 0.00113651 0.0
0.144204 0.000683096 0.0
0.125119 0.000148661 0.0
0.0975877 -8.4203e-05 0.0
0 0 0.0
0.0353012 -0.000104946 0.0
0.0672179 0.000120289 0.0
0.131663 -0.00143972 0.0
0.169403 -0.00130085 0.0
0.199753 -0.00168978 0.0
0.218129 -0.00179796 0.0
0.241285 0.000669929 0.0
0.249074 -0.000136691 0.0
0.247118 0.000295572 0.0
0.228397 -0.00180815 0.0
0.243644 -0.00113267 0.0
0.247695 -0.000539932 0.0
0.233817 0.00112936 0.0
0 0 0.0
0.0364323 -0.000455595 0.0
0.124216 -0.00284345 0.0
0.073204 -0.00213714 0.0
0.208471 0.00165797 0.0
0.224603 0.00173563 0.0
0.198481 0.00233826 0.0
0.178787 0.00208228 0.0
0.148057 0.00169474 0.0
0.120493 0.00116425 0.0
0.0977975 0.000447506 0.0
0 0 0.0
0.0343962 0.000114916 0.0
0.0676962 0.000736921 0.0
0.153746 -0.00263312 0.0
0.178932 -0.00239998 0.0
0.209993 -0.00241792 0.0
0.243613 0.000799205 0.0
0.247981 0.000151756 0.0
0.230929 -0.00240447 0.0
0.242329 -0.00157065 0.0
0.247642 -0.000136119 0.0
0.247475 -0.000624353 0.0
0.234716 0.00165832 0.0
0.212271 -0.00382191 0.0
0 0 0.0
0.0390564 -0.000863092 0.0
0.142682 -0.00461663 0.0
0.103242 -0.00485243 0.0
0.0709593 -0.00291473 0.0
0.213361 0.00250024 0.0
0.187394 0.00330708 0.0
0.166523 0.0031895 0.0
0.124026 0.00275197 0.0
0.0942872 0.00180781 0.0
0 0 0.0
0.0350659 0.000386369 0.0
0.0661874 0.00169529 0.0
0.166783 -0.00424154 0.0
0.187563 -0.00378067 0.0
0.159164 -0.00647566 0.0
0.245066 0.000834322 0.0
0.245593 0.000670803 0.0
0.229142 -0.00333225 0.0
0.237981 -0.00255607 0.0
0.245657 -0.00111363 0.0
0.238212 0.00183224 0.0
0.227603 0.00299036 0.0
0.198834 -0.00513672 0.0
0.216862 -0.00495974 0.0
0 0 0.0
0.0387154 -0.00107343 0.0
0.128946 -0.00769654 0.0
0.0751744 -0.00383554 0.0
0.104457 -0.00663121 0.0
0.207545 0.00428898 0.0
0.19014 0.00476596 0.0
0.16929 0.00511714 0.0
0.14245 0.00441949 0.0
0.0980877 0.00354525 0.0
0 0 0.0
0.0349494 0.000676745 0.0
0.0706389 0.00285591 0.0
0.183208 -0.00688601 0.0
0.159866 -0.00885782 0.0
0.241583 0.00179162 0.0
0.245157 0.000338734 0.0
0.232602 -0.00398907 0.0
0.240773 -0.00258867 0.0
0.244913 -0.00109962 0.0
0.235258 0.00309708 0.0
0.216361 0.00525043 0.0
0.201571 -0.00718139 0.0
0.220216 -0.00602646 0.0
0 0 0.0
0.0562344 -0.0023515 0.0
0.131758 -0.0102619 0.0
0.0999923 -0.00718249 0.0
0.201588 0.006202 0.0
0.178233 0.00719359 0.0
0.149499 0.00771035 0.0
0.121581 0.00597823 0.0
0.0852364 0.00476097 0.0
0 0 0.0
0.0383964 0.00103522 0.0
0.186268 -0.00976367 0.0
0.160499 -0.0114101 0.0
0.241461 0.00199552 0.0
0.24376 -0.000261165 0.0
0.234776 -0.004515 0.0
0.240545 -0.00271888 0.0
0.23462 0.00398072 0.0
0.223214 0.00592903 0.0
0.207058 0.00774285 0.0
0.222732 -0.00708778 0.0
0.206805 -0.00896451 0.0
0 0 0.0
0.0608767 -0.00258402 0.0
0.134153 -0.0125482 0.0
0.104545 -0.00814474 0.0
0.185974 0.00936306 0.0
0.160215 0.0104653 0.0
0.0557871 0.0022984 0.0
0.1313 0.0100154 0.0
0.0989354 0.00690074 0.0
0 0 0.0
0.184738 -0.0129624 0.0
0.16035 -0.0144367 0.0
0.240185 0.00220329 0.0
0.241243 -0.000316762 0.0
0.232439 -0.00583191 0.0
0.237731 -0.00346773 0.0
0.220987 0.00792266 0.0
0.232265 0.00525448 0.0
0.184316 0.0125461 0.0
0.205011 0.0103898 0.0
0.22078 -0.00886026 0.0
0.204631 -0.0117334 0.0
0 0 0.0
0.0659277 -0.0026353 0.0
0.137657 -0.0140426 0.0
0.111135 -0.00870864 0.0
0.133653 0.0122728 0.0
0.159888 0.0135551 0.0
0.0600981 0.00254743 0.0
0.103948 0.00800022 0.0
0 0 0.0
0.183095 -0.0160148 0.0
0.160931 -0.0168622 0.0
0.237341 0.00289666 0.0
0.23806 -0.000348383 0.0
0.218356 -0.0107683 0.0
0.227965 -0.00806445 0.0
0.234254 -0.00429508 0.0
0.21858 0.00976354 0.0
0.229161 0.00672969 0.0
0.182985 0.0148275 0.0
0.202384 0.013172 0.0
0.201994 -0.0145609 0.0
0 0 0.0
0.0709044 -0.00260705 0.0
0.142991 -0.0145449 0.0
0.117581 -0.00855124 0.0
0.136392 0.0135724 0.0
0.160149 0.016055 0.0
0.0651043 0.00259907 0.0
0.10972 0.00850836 0.0
0 0 0.0
0.162475 -0.0182126 0.0
0.181573 -0.018847 0.0
0.233721 0.00365088 0.0
0.234036 -0.000401379 0.0
0.224695 -0.00935211 0.0
0.213498 -0.0137578 0.0
0.229932 -0.0051426 0.0
0.225307 0.00827709 0.0
0.215782 0.0115998 0.0
0.181524 0.0173611 0.0
0.199511 0.0156931 0.0
0.199154 -0.0169611 0.0
0 0 0.0
0.0751 -0.0023413 0.0
0.147592 -0.0140693 0.0
0.124037 -0.00781908 0.0
0.140723 0.0142165 0.0
0.161408 0.0176017 0.0
0 0 0.0
0.116053 0.00833684 0.0
0.0696334 0.00248584 0.0
0.18111 -0.019742 0.0
0.165028 -0.0183108 0.0
0.210248 -0.0150722 0.0
0.229317 0.00439393 0.0
0.229245 -0.00045182 0.0
0.226092 -0.00571039 0.0
0.221148 -0.0104302 0.0
0.220808 0.00958801 0.0
0.211912 0.0135261 0.0
0.180429 0.0190249 0.0
0.196694 0.0174148 0.0
0.196525 -0.0184352 0.0
0 0 0.0
0.0792033 -0.00191257 0.0
0.129441 -0.00683505 0.0
0.153191 -0.0127403 0.0
0.146642 0.0136676 0.0
0.163653 0.0178741 0.0
0 0 0.0
0.074287 0.00222218 0.0
0.121699 0.00774619 0.0
0.181337 -0.0194715 0.0
0.168363 -0.0171367 0.0
0.207046 -0.0157274 0.0
0.214284 -0.0114348 0.0
0.224217 0.00494387 0.0
0.223799 -0.000523813 0.0
0.221941 -0.00610207 0.0
0.215927 0.0103382 0.0
0.207901 0.0146756 0.0
0.180456 0.0189539 0.0
0.194313 0.0178739 0.0
0.194417 -0.0185896 0.0
0 0 0.0
0.0824857 -0.00147207 0.0
0.159648 -0.0104695 0.0
0.135322 -0.00537551 0.0
0.151357 0.0125287 0.0
0.166706 0.0168737 0.0
0.0779427 0.00187728 0.0
0 0 0.0
0.128186 0.0065452 0.0
0.172053 -0.0150265 0.0
0.182493 -0.017436 0.0
0.202252 -0.0151591 0.0
0.209549 -0.0111946 0.0
0.216436 -0.00622339 0.0
0.216153 0.00510413 0.0
0.218054 -0.000591522 0.0
0.211 0.01027 0.0
0.202777 0.0144645 0.0
0.181266 0.0171544 0.0
0.192538 0.0169499 0.0
0.192907 -0.0173969 0.0
0 0 0.0
0.0851311 -0.00111084 0.0
0.139583 -0.00415605 0.0
0.175723 -0.0124062 0.0
0.163806 -0.00866288 0.0
0.156772 0.0105977 0.0
0.169523 0.0153136 0.0
0.0810442 0.00143079 0.0
0 0 0.0
0.132907 0.00537881 0.0
0.192139 -0.015615 0.0
0.183673 -0.0155776 0.0
0.206045 -0.0104131 0.0
0.199449 -0.01355 0.0
0.208789 -0.00573022 0.0
0.212425 -0.000680437 0.0
0.212025 0.00478452 0.0
0.206423 0.00938187 0.0
0.200197 0.0133207 0.0
0.182263 0.0153173 0.0
0.17382 0.0121494 0.0
0.191375 0.014882 0.0
0 0 0.0
0.142673 -0.00312981 0.0
0.0869818 -0.000842072 0.0
0.178517 -0.0102277 0.0
0.168591 -0.00635843 0.0
0.161674 0.00838575 0.0
0 0 0.0
0.0834142 0.00100717 0.0
0.137533 0.00392345 0.0
0.191731 -0.0134014 0.0
0.185594 -0.0120182 0.0
0.203011 -0.00936336 0.0
0.197217 -0.0113963 0.0
0.20538 -0.00520598 0.0
0.207381 -0.000772689 0.0
0.208124 0.00423164 0.0
0.176474 0.00990189 0.0
0.190842 0.0125602 0.0
0.202514 0.00786685 0.0
0.197984 0.0116338 0.0
0.18367 0.0123887 0.0
0 0 0.0
0.0881616 -0.000594001 0.0
0.145264 -0.00224469 0.0
0.18145 -0.007785 0.0
0.171865 -0.00467368 0.0
0.140654 0.00274371 0.0
0.166316 0.00593878 0.0
0 0 0.0
0.0852738 0.00064119 0.0
0.191602 -0.0106842 0.0
0.187205 -0.0093015 0.0
0.199881 -0.00777799 0.0
0.195632 -0.00916609 0.0
0.202324 -0.00462483 0.0
0.203073 -0.000914868 0.0
0.202 0.00281535 0.0
0.179288 0.00719593 0.0
0.199293 0.00604157 0.0
0.190525 0.0100747 0.0
0.195235 0.00829749 0.0
0.185451 0.00864601 0.0
0 0 0.0
0.147257 -0.00152639 0.0
0.0892556 -0.000383763 0.0
0.184209 -0.00540172 0.0
0.174313 -0.00338722 0.0
0.142762 0.00184007 0.0
0.169452 0.00408867 0.0
0 0 0.0
0.0861764 0.000451485 0.0
0.188537 -0.00701311 0.0
0.191648 -0.00824308 0.0
0.197521 -0.00626355 0.0
0.199236 -0.00389445 0.0
0.194521 -0.00714704 0.0
0.19973 -0.0010676 0.0
0.198916 0.00177537 0.0
0.196853 0.00423767 0.0
0.197804 -0.00234958 0.0
0.181588 0.00490022 0.0
0.193889 0.00588727 0.0
0.190388 0.00650631 0.0
0.186397 0.00661957 0.0
0 0 0.0
0.148473 -0.0011427 0.0
0.0899152 -0.000316122 0.0
0.185695 -0.00423468 0.0
0.176144 -0.00247233 0.0
0.14434 0.0010697 0.0
0.17143 0.00279338 0.0
0 0 0.0
0.0868574 0.000223953 0.0
0.189656 -0.00525285 0.0
0.191849 -0.00626657 0.0
0.195798 -0.0050003 0.0
0.193805 -0.00555332 0.0
0.196147 -0.00310284 0.0
0.197547 -5.07155e-05 0.0
0.196317 0.00205263 0.0
0.19428 0.00365074 0.0
0.196247 -0.00135957 0.0
0.183236 0.00305969 0.0
0.191742 0.00448558 0.0
0.189698 0.0043874 0.0
0.187596 0.00383943 0.0
0 0 0.0
0.149453 -0.00089158 0.0
0.0904036 -0.00024836 0.0
0.187088 -0.00318926 0.0
0.177499 -0.00189205 0.0
0.173262 0.00146624 0.0
0.145322 0.000504236 0.0
0 0 0.0
0.0873012 4.48446e-05 0.0
0.190555 -0.00401876 0.0
0.192069 -0.00481532 0.0
0.194758 -0.00278181 0.0
0.193365 -0.00440615 0.0
0.194634 -0.00406131 0.0
0.195572 0.000363582 0.0
0.194228 0.00177902 0.0
0.192422 0.0026766 0.0
0.194729 -0.00158244 0.0
0.184404 0.00168591 0.0
0.190388 0.0029265 0.0
0.188264 0.00217646 0.0
0 0 0.0
0.0907245 -0.000232747 0.0
0.150246 -0.000767707 0.0
0.178388 -0.00160293 0.0
0.191263 -0.00323312 0.0
0.188158 -0.00253859 0.0
0.174241 0.000640696 0.0
0.145839 0.000128176 0.0
0.0872844 -1.40643e-05 0.0
0 0 0.0
0.193158 -0.00377333 0.0
0.192327 -0.00385438 0.0
0.194014 -0.00266523 0.0
0.193854 -0.00346347 0.0
0.191849 0.00124113 0.0
0.19417 -0.000388396 0.0
0.193162 0.000604514 0.0
0.193694 -0.00184357 0.0
0.188684 0.000933107 0.0
0.185215 0.000505221 0.0
0.190354 0.00106717 0.0
0 0 0.0
0.0912029 -0.000229052 0.0
0.150924 -0.000745477 0.0
0.179215 -0.00142451 0.0
0.191738 -0.00288143 0.0
0.189173 -0.00217325 0.0
0.174747 5.97472e-05 0.0
0.146056 -0.000161838 0.0
0.0872092 -8.65519e-05 0.0
0 0 0.0
0.175061 -0.000367428 0.0
0.193047 -0.00337172 0.0
0.192649 -0.00319768 0.0
0.193218 -0.00309649 0.0
0.193464 -0.0026454 0.0
0.191303 -0.000186708 0.0
0.192414 -0.00032684 0.0
0.193202 -0.00102528 0.0
0.192982 -0.0021443 0.0
0.18893 1.07073e-05 0.0
0.18561 -0.000181604 0.0
0.190292 3.38643e-05 0.0
0 0 0.0
0.0916341 -0.000229918 0.0
0.151553 -0.000796419 0.0
0.179919 -0.0014286 0.0
0.192253 -0.00266229 0.0
0.189847 -0.00210946 0.0
0.0869322 -0.000139023 0.0
0.146037 -0.000352749 0.0
0 0 0.0
0.175034 -0.000635933 0.0
0.193018 -0.00317744 0.0
0.192916 -0.00303589 0.0
0.192989 -0.00310312 0.0
0.192975 -0.00275896 0.0
0.191036 -0.000854139 0.0
0.19187 -0.00107837 0.0
0.192496 -0.00249669 0.0
0.192279 -0.00181824 0.0
0.188969 -0.000523073 0.0
0.185721 -0.000695831 0.0
0.190177 -0.000755906 0.0
0 0 0.0
0.092161 -0.000275367 0.0
0.152131 -0.00090759 0.0
0.180643 -0.00155373 0.0
0.192818 -0.00270244 0.0
0.19318 -0.00310854 0.0
0.190442 -0.00222106 0.0
0.0867598 -0.000190017 0.0
0.145791 -0.000501154 0.0
0 0 0.0
0.174908 -0.000890254 0.0
0.193077 -0.00325828 0.0
0.192883 -0.00324386 0.0
0.192658 -0.00300221 0.0
0.192221 -0.002799 0.0
0.190795 -0.00141631 0.0
0.191446 -0.00172047 0.0
0.191851 -0.00232706 0.0
0.185717 -0.00110525 0.0
0.188928 -0.00109935 0.0
0.190003 -0.00138684 0.0
0 0 0.0
0.0926867 -0.000381373 0.0
0.152884 -0.00106819 0.0
0.181337 -0.00179018 0.0
0.193163 -0.00287561 0.0
0.193449 -0.00335021 0.0
0.191029 -0.002459 0.0
0.0864371 -0.000242288 0.0
0.145483 -0.000619381 0.0
0 0 0.0
0.185506 -0.00137668 0.0
0.145008 -0.000713591 0.0
0.174529 -0.00113568 0.0
0.193188 -0.00356673 0.0
0.192822 -0.00346632 0.0
0.192371 -0.00355453 0.0
0.19201 -0.0031301 0.0
0.191583 -0.00272563 0.0
0.190512 -0.00200591 0.0
0.190975 -0.00251805 0.0
0.188709 -0.00167563 0.0
0.189823 -0.001855 0.0
0.193307 -0.00391377 0.0
0 0 0.0
0.0933545 -0.000450889 0.0
0.182102 -0.00210553 0.0
0.153712 -0.00129782 0.0
0.193752 -0.0037814 0.0
0.19371 -0.00333838 0.0
0.191603 -0.0028319 0.0
0.0860903 -0.000267477 0.0
0 0 0.0
0.188531 -0.00199223 0.0
0.185246 -0.00168931 0.0
0.174195 -0.00134287 0.0
0.0854887 -0.000257344 0.0
0.144573 -0.000820634 0.0
0.192807 -0.00390033 0.0
0.192266 -0.00394813 0.0
0.191762 -0.00363892 0.0
0.191602 -0.00407977 0.0
0.191341 -0.0031353 0.0
0.190206 -0.00255385 0.0
0.190648 -0.0030737 0.0
0.189576 -0.00227299 0.0
0.193412 -0.00436555 0.0
0.0940737 -0.000555312 0.0
0 0 0.0
0.182741 -0.00243749 0.0
0.154624 -0.00156721 0.0
0.194056 -0.00436067 0.0
0.194068 -0.00374079 0.0
0.192252 -0.00333088 0.0
0 0 0.0
0.188175 -0.00238241 0.0
0.184717 -0.00204613 0.0
0.173678 -0.00150527 0.0
0.0850766 -0.000297546 0.0
0.143933 -0.000928158 0.0
0.192809 -0.00473224 0.0
0.19218 -0.00439862 0.0
0.191431 -0.00455868 0.0
0.190929 -0.00395543 0.0
0.189875 -0.00308167 0.0
0.190323 -0.00364554 0.0
0.189134 -0.00289575 0.0
0.193595 -0.00507241 0.0
0 0 0.0
0.0951414 -0.00066561 0.0
0.183638 -0.00294109 0.0
0.155646 -0.00188202 0.0
0.192919 -0.00396615 0.0
0.194392 -0.0051113 0.0
0.194692 -0.00457476 0.0
0 0 0.0
0 0 0.0
0.187738 -0.00278313 0.0
0.184277 -0.00236066 0.0
0.173142 -0.001709 0.0
0.143247 -0.00104058 0.0
0.084534 -0.000354244 0.0
0.192816 -0.00549636 0.0
0.19205 -0.00510145 0.0
0.190034 -0.00412598 0.0
0.191195 -0.00528256 0.0
0.190611 -0.00461359 0.0
0.189489 -0.00363005 0.0
0.188693 -0.0033779 0.0
0.192807 -0.00622492 0.0
0.193734 -0.0059441 0.0
0.0964447 -0.000812698 0.0
0.156918 -0.00228016 0.0
0.184714 -0.00358214 0.0
0.193595 -0.00459818 0.0
0.194746 -0.00602576 0.0
0.195102 -0.00525595 0.0
0 0 0.0
0 0 0.0
0.183727 -0.00260667 0.0
0.187047 -0.00328852 0.0
0.142491 -0.0011444 0.0
0.172297 -0.00195429 0.0
0.0838907 -0.000388151 0.0
0.191843 -0.00630618 0.0
0.190899 -0.00612302 0.0
0.18819 -0.00388638 0.0
0.189705 -0.00463454 0.0
0.190343 -0.00517563 0.0
0.188867 -0.00441387 0.0
0.192781 -0.00702515 0.0
0.193956 -0.00741174 0.0
0.195097 -0.00716768 0.0
0.0979568 -0.00105398 0.0
0.158585 -0.00281532 0.0
0.186114 -0.00456634 0.0
0.194443 -0.00552566 0.0
0.195843 -0.00659742 0.0
0 0 0.0
0 0 0.0
0.182887 -0.0029971 0.0
0.186419 -0.00373344 0.0
0.141586 -0.00127914 0.0
0.17147 -0.00218105 0.0
0.0831781 -0.000420617 0.0
0.190034 -0.00578537 0.0
0.190541 -0.00705927 0.0
0.191595 -0.00734887 0.0
0.187589 -0.0044214 0.0
0.189243 -0.00533488 0.0
0.188307 -0.00506366 0.0
0.18568 -0.00420071 0.0
0.192617 -0.00873277 0.0
0 0 0.0
0.194006 -0.00879226 0.0
0.196492 -0.00795226 0.0
0.195422 -0.00851552 0.0
0.0998012 -0.00131339 0.0
0.187476 -0.00547039 0.0
0.160829 -0.00364373 0.0
0.195634 -0.00704869 0.0
0 0 0.0
0 0 0.0
0 0 0.0
0 0 0.0
0 0 0.0
0.0824606 -0.000452727 0.0
0.170616 -0.00242407 0.0
0.18209 -0.00335015 0.0
0.140751 -0.00138884 0.0
0.189558 -0.00663598 0.0
0.190073 -0.00813009 0.0
0.191291 -0.00853244 0.0
0.187766 -0.00561362 0.0
0.18687 -0.00499745 0.0
0.18843 -0.00642421 0.0
0.186187 -0.00551424 0.0
0.185008 -0.00456037 0.0
0.192346 -0.0102231 0.0
0.194001 -0.010343 0.0
0 0 0.0
-0.000499771 0.000278147 0.0
0 0 0.0
-0.000728129 0.00794348 0.0
0.195723 -0.010182 0.0
0.197005 -0.00917016 0.0
0.102328 -0.00169688 0.0
0.189188 -0.0067601 0.0
0.163335 -0.00465605 0.0
0.196824 -0.00871099 0.0
0 0 0.0
0 0 0.0
0 0 0.0
-0.000590124 0.00588223 0.0
-0.000493031 0.00164471 0.0
-0.00138437 0.00144498 0.0
0 0 0.0
0.08162 -0.00049209 0.0
0.169698 -0.00262711 0.0
0.181143 -0.00371948 0.0
0.139531 -0.00153262 0.0
0.188984 -0.0075964 0.0
0.189477 -0.009328 0.0
0.190845 -0.00986919 0.0
0.187144 -0.00621327 0.0
0.187862 -0.00712637 0.0
0.185394 -0.00604786 0.0
0.183769 -0.00519672 0.0
0.191953 -0.0118955 0.0
0.193391 -0.0120147 0.0
0.194897 -0.0119312 0.0
0 0 0.0
-0.00168824 0.000542713 0.0
0 0 0.0
0 0 0.0
-0.00244013 0.0131535 0.0
-0.00239913 0.010298 0.0
0.19636 -0.0117429 0.0
0.197643 -0.0111654 0.0
0.166046 -0.00585055 0.0
0.1053 -0.00223423 0.0
0.191235 -0.00848233 0.0
0.198018 -0.0108022 0.0
0 0 0.0
-0.00162028 0.00497584 0.0
-0.00199709 0.00750702 0.0
-0.00206771 0.00338194 0.0
-0.00335551 0.00210176 0.0
0 0 0.0
0.0807209 -0.00053368 0.0
0.16856 -0.00287634 0.0
0.180048 -0.00409215 0.0
0.138344 -0.00166722 0.0
0.18827 -0.00864775 0.0
0.188721 -0.0106387 0.0
0.190228 -0.0113762 0.0
0.185953 -0.00727016 0.0
0.187205 -0.00785582 0.0
0.184329 -0.00671827 0.0
0.17892 -0.00449325 0.0
0.182651 -0.00573122 0.0
0.191471 -0.0133948 0.0
0.193634 -0.013612 0.0
0.195944 -0.0138416 0.0
0 0 0.0
-0.00362831 0.000691379 0.0
0 0 0.0
0 0 0.0
0 0 0.0
0 0 0.0
-0.00443568 0.0093141 0.0
-0.000911108 0.0121302 0.0
-0.00266835 0.0157148 0.0
-0.00536265 0.0162381 0.0
-0.00445319 0.0128814 0.0
0 0 0.0
-0.000667373 0.0205544 0.0
0.19828 -0.0143321 0.0
0.19905 -0.0128772 0.0
0 0 0.0
0.109626 -0.00311156 0.0
0.16983 -0.00751628 0.0
0.194051 -0.0113778 0.0
0 0 0.0
0 0 0.0
-0.00384184 0.00658575 0.0
-0.00445553 0.00426946 0.0
-0.00571033 0.00224731 0.0
0 0 0.0
0.0796886 -0.000576258 0.0
0.16711 -0.00317131 0.0
0.137005 -0.00179909 0.0
0.177798 -0.0047927 0.0
0.187396 -0.00979131 0.0
0.188017 -0.0117034 0.0
0.189412 -0.0130628 0.0
0.185063 -0.00794976 0.0
0.186243 -0.00883007 0.0
0.183124 -0.0074031 0.0
0.181661 -0.00612415 0.0
0.194538 -0.015338 0.0
0.190813 -0.0150409 0.0
0.192871 -0.016826 0.0
0.195674 -0.0173846 0.0
0.198597 -0.017651 0.0
0 0 0.0
-0.00501633 0.000615441 0.0
-0.000917745 0.0195462 0.0
-0.00335304 0.0270199 0.0
-0.00104996 0.0150026 0.0
-0.00637439 0.010589 0.0
-0.00795191 0.00747109 0.0
-0.00355264 0.0205727 0.0
-0.00642564 0.0200386 0.0