# vtk DataFile Version 3.0
Mesh NS-CD Problem
ASCII
DATASET UNSTRUCTURED_GRID
POINTS 10839 float
-2 0.3 0.0
-2 0.4 0.0
-2 0.35 0.0
-2 0.45 0.0
-2 0.5 0.0
-2 0.55 0.0
-2 0 0.0
-2 0.05 0.0
-2 0.85 0.0
-2 0.9 0.0
-2 0.1 0.0
-2 0.15 0.0
-2 0.25 0.0
-2 0.2 0.0
-1.96653 0.266667 0.0
-1.96524 0.415385 0.0
-1.96485 0.315 0.0
-1.96348 0.363636 0.0
-1.96414 0.464286 0.0
-2 0.6 0.0
-1.96538 0.584615 0.0
-1.96538 0.538462 0.0
-1.94979 0 0.0
-1.96653 0.0666666 0.0
-1.93306 0.0333333 0.0
-2 0.8 0.0
-2 0.75 0.0
-2 0.7 0.0
-2 0.65 0.0
-1.96249 0.7375 0.0
-1.96666 0.833333 0.0
-2 1 0.0
-2 0.95 0.0
-1.96249 0.8875 0.0
-1.96666 0.933333 0.0
-1.96234 0.1125 0.0
-1.96653 0.166667 0.0
-1.93724 0.225 0.0
-1.92971 0.28 0.0
-1.93048 0.380769 0.0
-1.93048 0.423077 0.0
-1.89958 0.3375 0.0
-1.9292 0.484203 0.0
-1.92117 0.530907 0.0
-1.96363 0.636364 0.0
-1.93076 0.576923 0.0
-1.89958 0 0.0
-1.88703 0.0375 0.0
-1.90963 0.08 0.0
-1.86611 0.0666666 0.0
-1.93749 0.775 0.0
-1.93635 0.672727 0.0
-1.92999 0.72 0.0
-1.93332 0.866667 0.0
-1.92856 0.821429 0.0
-1.94999 1 0.0
-1.92499 0.9625 0.0
-1.92499 0.925 0.0
-1.89998 0.9 0.0
-1.89958 0.125 0.0
-1.92827 0.178571 0.0
-1.89958 0.233333 0.0
-1.89045 0.290909 0.0
-1.86096 0.311538 0.0
-1.89241 0.392857 0.0
-1.89334 0.448489 0.0
-1.85655 0.357143 0.0
-1.89614 0.653846 0.0
-1.89427 0.504121 0.0
-1.8952 0.559753 0.0
-1.89614 0.615385 0.0
-1.84937 0 0.0
-1.83264 0.0333333 0.0
-1.85655 0.107143 0.0
-1.81172 0.075 0.0
-1.89998 0.766667 0.0
-1.89089 0.709091 0.0
-1.87498 0.85 0.0
-1.85998 0.79 0.0
-1.88748 0.8125 0.0
-1.89998 1 0.0
-1.88748 0.9625 0.0
-1.86664 0.933333 0.0
-1.85712 0.892857 0.0
-1.87448 0.15 0.0
-1.86611 0.194444 0.0
-1.83264 0.133333 0.0
-1.83264 0.2625 0.0
-1.82068 0.321429 0.0
-1.85664 0.404762 0.0
-1.85674 0.452381 0.0
-1.85683 0.5 0.0
-1.81184 0.375 0.0
-1.85712 0.642857 0.0
-1.85693 0.547619 0.0
-1.85702 0.595238 0.0
-1.79917 0 0.0
-1.78482 0.0357143 0.0
-1.79917 0.116667 0.0
-1.76569 0.0666666 0.0
-1.85452 0.745455 0.0
-1.82689 0.692308 0.0
-1.81815 0.781818 0.0
-1.82497 0.825 0.0
-1.84997 1 0.0
-1.8333 0.958333 0.0
-1.81247 0.8875 0.0
-1.81247 0.925 0.0
-1.81742 0.218182 0.0
-1.82427 0.175 0.0
-1.77634 0.145455 0.0
-1.79144 0.242308 0.0
-1.78482 0.285714 0.0
-1.77469 0.332653 0.0
-1.81215 0.529762 0.0
-1.81194 0.422619 0.0
-1.81203 0.470238 0.0
-1.76714 0.392857 0.0
-1.81234 0.625 0.0
-1.79732 0.571429 0.0
-1.74896 0 0.0
-1.73222 0.0333333 0.0
-1.75398 0.105 0.0
-1.71883 0.07 0.0
-1.79227 0.730769 0.0
-1.78007 0.679121 0.0
-1.75765 0.769231 0.0
-1.78178 0.818182 0.0
-1.78996 0.86 0.0
-1.79996 1 0.0
-1.78568 0.964286 0.0
-1.76663 0.922222 0.0
-1.76569 0.1875 0.0
-1.73222 0.15 0.0
-1.74896 0.25 0.0
-1.73714 0.304762 0.0
-1.76743 0.537202 0.0
-1.72869 0.343878 0.0
-1.76732 0.485119 0.0
-1.76723 0.440476 0.0
-1.72243 0.410714 0.0
-1.76757 0.607143 0.0
-1.69875 0 0.0
-1.68369 0.035 0.0
-1.69875 0.1125 0.0
-1.66528 0.075 0.0
-1.74341 0.708974 0.0
-1.73324 0.665934 0.0
-1.70441 0.74478 0.0
-1.71423 0.785714 0.0
-1.72303 0.826923 0.0
-1.74541 0.854545 0.0
-1.74541 0.890909 0.0
-1.74996 1 0.0
-1.73745 0.9625 0.0
-1.71359 0.927273 0.0
-1.68716 0.153846 0.0
-1.7131 0.214286 0.0
-1.70725 0.275 0.0
-1.69712 0.321939 0.0
-1.72279 0.589286 0.0
-1.72261 0.5 0.0
-1.7227 0.544643 0.0
-1.6827 0.355102 0.0
-1.67773 0.428571 0.0
-1.70763 0.464286 0.0
-1.70369 0.62449 0.0
-1.64854 0 0.0
-1.63181 0.0375 0.0
-1.64137 0.142857 0.0
-1.61764 0.0769231 0.0
-1.69458 0.703846 0.0
-1.67471 0.657437 0.0
-1.66143 0.727637 0.0
-1.67125 0.768571 0.0
-1.67851 0.821429 0.0
-1.68841 0.861538 0.0
-1.70904 0.890909 0.0
-1.69995 1 0.0
-1.68176 0.963636 0.0
-1.67267 0.927273 0.0
-1.65427 0.187143 0.0
-1.66718 0.231429 0.0
-1.66554 0.3 0.0
-1.67802 0.571429 0.0
-1.67792 0.523809 0.0
-1.6367 0.366327 0.0
-1.63682 0.423469 0.0
-1.62568 0.502976 0.0
-1.6629 0.470238 0.0
-1.65254 0.618367 0.0
-1.6059 0.307143 0.0
-1.59833 0 0.0
-1.58288 0.0384615 0.0
-1.60563 0.169643 0.0
-1.58179 0.112271 0.0
-1.56964 0.0714286 0.0
-1.64574 0.690385 0.0
-1.62827 0.751429 0.0
-1.63371 0.791071 0.0
-1.64279 0.857143 0.0
-1.65378 0.896154 0.0
-1.64994 1 0.0
-1.6363 0.963636 0.0
-1.61916 0.930769 0.0
-1.61345 0.209107 0.0
-1.62126 0.248571 0.0
-1.56989 0.196429 0.0
-1.63324 0.553571 0.0
-1.58846 0.535714 0.0
-1.59408 0.361905 0.0
-1.59161 0.402211 0.0
-1.58832 0.464286 0.0
-1.61504 0.598581 0.0
-1.59683 0.64359 0.0
-1.57899 0.274107 0.0
-1.56176 0.322381 0.0
-1.54812 0 0.0
-1.53378 0.0357143 0.0
-1.54593 0.147619 0.0
-1.53385 0.0732143 0.0
-1.53393 0.110714 0.0
-1.58522 0.704286 0.0
-1.58709 0.745 0.0
-1.58896 0.785714 0.0
-1.60695 0.830357 0.0
-1.60707 0.892857 0.0
-1.59993 1 0.0
-1.58454 0.965385 0.0
-1.57135 0.928571 0.0
-1.55209 0.241071 0.0
-1.5291 0.198214 0.0
-1.56936 0.570918 0.0
-1.54369 0.517857 0.0
-1.5464 0.380952 0.0
-1.54564 0.427721 0.0
-1.54488 0.47449 0.0
-1.55026 0.606122 0.0
-1.54222 0.677143 0.0
-1.52943 0.282857 0.0
-1.52143 0.33619 0.0
-1.49792 0 0.0
-1.49802 0.05 0.0
-1.49822 0.15 0.0
-1.49312 0.1 0.0
-1.5423 0.717143 0.0
-1.54419 0.767857 0.0
-1.54727 0.819048 0.0
-1.57122 0.861905 0.0
-1.53553 0.914286 0.0
-1.54992 1 0.0
-1.53563 0.964286 0.0
-1.49842 0.25 0.0
-1.48831 0.2 0.0
-1.5214 0.558929 0.0
-1.49891 0.5 0.0
-1.49871 0.4 0.0
-1.47631 0.45 0.0
-1.49911 0.6 0.0
-1.49921 0.65 0.0
-1.49931 0.7 0.0
-1.48111 0.35 0.0
-1.48351 0.3 0.0
-1.44771 0 0.0
-1.44782 0.05 0.0
-1.44804 0.15 0.0
-1.44793 0.1 0.0
-1.49941 0.75 0.0
-1.49951 0.8 0.0
-1.49981 0.95 0.0
-1.49961 0.85 0.0
-1.49971 0.9 0.0
-1.49991 1 0.0
-1.44826 0.25 0.0
-1.43815 0.2 0.0
-1.47151 0.55 0.0
-1.44881 0.5 0.0
-1.44859 0.4 0.0
-1.42619 0.45 0.0
-1.44913 0.65 0.0
-1.44902 0.6 0.0
-1.44935 0.75 0.0
-1.44924 0.7 0.0
-1.43972 0.35 0.0
-1.43336 0.3 0.0
-1.3975 0 0.0
-1.39762 0.05 0.0
-1.39786 0.15 0.0
-1.39274 0.1 0.0
-1.44957 0.85 0.0
-1.44946 0.8 0.0
-1.4523 0.95 0.0
-1.44968 0.9 0.0
-1.4499 1 0.0
-1.3981 0.25 0.0
-1.38798 0.2 0.0
-1.42141 0.55 0.0
-1.3987 0.5 0.0
-1.39834 0.35 0.0
-1.37845 0.4 0.0
-1.37607 0.45 0.0
-1.40784 0.65 0.0
-1.39894 0.6 0.0
-1.41185 0.75 0.0
-1.39918 0.7 0.0
-1.38322 0.3 0.0
-1.34729 0 0.0
-1.34492 0.05 0.0
-1.34018 0.15 0.0
-1.34255 0.1 0.0
-1.40707 0.85 0.0
-1.39941 0.8 0.0
-1.39977 0.95 0.0
-1.39965 0.9 0.0
-1.39989 1 0.0
-1.33781 0.2 0.0
-1.33544 0.25 0.0
-1.37131 0.55 0.0
-1.34859 0.5 0.0
-1.33833 0.4 0.0
-1.3307 0.35 0.0
-1.32595 0.45 0.0
-1.34885 0.6 0.0
-1.36655 0.65 0.0
-1.36179 0.75 0.0
-1.34911 0.7 0.0
-1.33307 0.3 0.0
-1.29708 0 0.0
-1.29722 0.05 0.0
-1.2975 0.15 0.0
-1.29236 0.1 0.0
-1.35703 0.85 0.0
-1.34937 0.8 0.0
-1.34988 1 0.0
-1.34962 0.9 0.0
-1.35226 0.95 0.0
-1.28528 0.25 0.0
-1.28764 0.2 0.0
-1.28931 0.35 0.0
-1.32121 0.55 0.0
-1.29848 0.5 0.0
-1.28709 0.45 0.0
-1.2982 0.4 0.0
-1.29876 0.6 0.0
-1.31647 0.65 0.0
-1.29918 0.75 0.0
-1.29904 0.7 0.0
-1.28292 0.3 0.0
-1.24687 0 0.0
-1.24702 0.05 0.0
-1.24717 0.1 0.0
-1.24732 0.15 0.0
-1.29946 0.85 0.0
-1.29932 0.8 0.0
-1.29987 1 0.0
-1.29974 0.95 0.0
-1.30462 0.9 0.0
-1.24762 0.25 0.0
-1.23747 0.2 0.0
-1.24792 0.35 0.0
-1.22807 0.4 0.0
-1.27111 0.55 0.0
-1.24837 0.5 0.0
-1.24822 0.45 0.0
-1.24867 0.6 0.0
-1.26639 0.65 0.0
-1.26167 0.75 0.0
-1.24897 0.7 0.0
-1.23277 0.3 0.0
-1.19667 0 0.0
-1.19683 0.05 0.0
-1.18964 0.15 0.0
-1.19198 0.1 0.0
-1.25695 0.85 0.0
-1.24927 0.8 0.0
-1.25223 0.95 0.0
-1.24987 1 0.0
-1.24957 0.9 0.0
-1.1873 0.2 0.0
-1.18496 0.25 0.0
-1.18028 0.35 0.0
-1.17794 0.4 0.0
-1.1981 0.45 0.0
-1.19842 0.55 0.0
-1.19826 0.5 0.0
-1.19858 0.6 0.0
-1.19874 0.65 0.0
-1.19906 0.75 0.0
-1.1989 0.7 0.0
-1.18262 0.3 0.0
-1.14646 0 0.0
-1.14663 0.05 0.0
-1.1418 0.1 0.0
-1.13713 0.2 0.0
-1.14697 0.15 0.0
-1.20691 0.85 0.0
-1.20926 0.8 0.0
-1.20221 0.95 0.0
-1.19986 1 0.0
-1.20456 0.9 0.0
-1.13997 0.3 0.0
-1.14731 0.25 0.0
-1.13781 0.4 0.0
-1.13014 0.35 0.0
-1.12548 0.45 0.0
-1.14815 0.5 0.0
-1.15962 0.55 0.0
-1.14849 0.6 0.0
-1.15745 0.65 0.0
-1.16155 0.75 0.0
-1.14917 0.8 0.0
-1.14883 0.7 0.0
-1.09625 0 0.0
-1.09661 0.1 0.0
-1.09393 0.05 0.0
-1.09697 0.2 0.0
-1.08929 0.15 0.0
-1.15687 0.85 0.0
-1.14985 1 0.0
-1.15219 0.95 0.0
-1.14951 0.9 0.0
-1.09733 0.3 0.0
-1.08465 0.25 0.0
-1.09769 0.4 0.0
-1.08 0.35 0.0
-1.08661 0.45 0.0
-1.09804 0.5 0.0
-1.12082 0.55 0.0
-1.10916 0.8 0.0
-1.10629 0.7 0.0
-1.0984 0.6 0.0
-1.11616 0.65 0.0
-1.11149 0.75 0.0
-1.04604 0 0.0
-1.04623 0.05 0.0
-1.04642 0.1 0.0
-1.0468 0.2 0.0
-1.03911 0.15 0.0
-1.09948 0.9 0.0
-1.0993 0.85 0.0
-1.09984 1 0.0
-1.09966 0.95 0.0
-1.04718 0.3 0.0
-1.03449 0.25 0.0
-1.04756 0.4 0.0
-1.02986 0.35 0.0
-1.04775 0.45 0.0
-1.04794 0.5 0.0
-1.04813 0.55 0.0
-1.05911 0.8 0.0
-1.04831 0.6 0.0
-1.06376 0.7 0.0
-1.0485 0.65 0.0
-1.04888 0.75 0.0
-0.995833 0 0.0
-0.991231 0.1 0.0
-0.996033 0.05 0.0
-0.986629 0.2 0.0
-0.98893 0.15 0.0
-1.05447 0.9 0.0
-1.04926 0.85 0.0
-1.04983 1 0.0
-1.04964 0.95 0.0
-0.984328 0.25 0.0
-0.99703 0.3 0.0
-0.997429 0.4 0.0
-0.997628 0.45 0.0
-0.979726 0.35 0.0
-0.997827 0.5 0.0
-0.998027 0.55 0.0
-0.998226 0.6 0.0
-0.961416 0.475 0.0
-1.00907 0.8 0.0
-0.998426 0.65 0.0
-0.998625 0.7 0.0
-1.01138 0.75 0.0
-0.945625 0 0.0
-0.946044 0.1 0.0
-0.943334 0.05 0.0
-0.946463 0.2 0.0
-0.938752 0.15 0.0
-1.00444 0.9 0.0
-1.00675 0.85 0.0
-0.999821 1 0.0
-1.00213 0.95 0.0
-0.93417 0.25 0.0
-0.946881 0.3 0.0
-0.9473 0.4 0.0
-0.929588 0.35 0.0
-0.925005 0.45 0.0
-0.960371 0.525 0.0
-0.959325 0.575 0.0
-0.958279 0.625 0.0
-0.922714 0.5 0.0
-0.959017 0.8 0.0
-0.957233 0.675 0.0
-0.952999 0.7125 0.0
-0.948766 0.75 0.0
-0.895417 0 0.0
-0.895855 0.1 0.0
-0.893136 0.05 0.0
-0.896294 0.2 0.0
-0.888573 0.15 0.0
-0.949184 0.85 0.0
-0.954415 0.9 0.0
-0.949812 1 0.0
-0.949603 0.95 0.0
-0.884011 0.25 0.0
-0.896733 0.3 0.0
-0.874887 0.45 0.0
-0.879449 0.35 0.0
-0.897171 0.4 0.0
-0.920423 0.55 0.0
-0.918132 0.6 0.0
-0.915841 0.65 0.0
-0.872606 0.5 0.0
-0.908968 0.8 0.0
-0.91355 0.7 0.0
-0.898707 0.75 0.0
-0.845208 0 0.0
-0.845438 0.05 0.0
-0.845667 0.1 0.0
-0.845896 0.15 0.0
-0.833853 0.25 0.0
-0.846126 0.2 0.0
-0.899146 0.85 0.0
-0.904386 0.9 0.0
-0.899584 0.95 0.0
-0.899804 1 0.0
-0.838062 0.35 0.0
[...]
POINT_DATA 10839
VECTORS Velocity float
0.21 0 0.0
0.24 0 0.0
0.2275 0 0.0
0.2475 0 0.0
0.25 0 0.0
0.2475 0 0.0
0 0 0.0
0.0475 0 0.0
0.1275 0 0.0
0.09 0 0.0
0.09 0 0.0
0.1275 0 0.0
0.1875 0 0.0
0.16 0 0.0
0.195557 -2.43556e-05 0.0
0.242841 -3.31637e-05 0.0
0.215776 -2.89644e-05 0.0
0.231406 -3.26329e-05 0.0
0.248725 -3.53015e-05 0.0
0.24 0 0.0
0.24284 -3.30893e-05 0.0
0.24852 -3.39981e-05 0.0
0 0 0.0
0.062224 -4.28341e-06 0.0
0.0322271 -2.83257e-06 0.0
0.16 0 0.0
0.1875 0 0.0
0.21 0 0.0
0.2275 0 0.0
0.193592 -2.73371e-05 0.0
0.138887 -1.52245e-05 0.0
0 0 0.0
0.0475 0 0.0
0.0998415 -1.06014e-05 0.0
0.0622205 -4.33191e-06 0.0
0.0998462 -1.10746e-05 0.0
0.138891 -1.53573e-05 0.0
0.17438 -3.83869e-05 0.0
0.201606 -5.25144e-05 0.0
0.235787 -6.40438e-05 0.0
0.244085 -6.69954e-05 0.0
0.223602 -8.5814e-05 0.0
0.249751 -6.99825e-05 0.0
0.249044 -7.7965e-05 0.0
0.231404 -3.31596e-05 0.0
0.244081 -6.62046e-05 0.0
0 0 0.0
0.0361084 -5.46485e-06 0.0
0.0736129 -1.52477e-05 0.0
0.0622495 -1.66961e-05 0.0
0.17437 -3.78277e-05 0.0
0.220162 -5.24743e-05 0.0
0.201594 -5.25928e-05 0.0
0.115548 -2.27473e-05 0.0
0.146676 -3.51776e-05 0.0
0 0 0.0
0.0360873 -3.68873e-06 0.0
0.0693659 -1.19373e-05 0.0
0.0899832 -2.36324e-05 0.0
0.109391 -3.19242e-05 0.0
0.146692 -3.44924e-05 0.0
0.178902 -6.42848e-05 0.0
0.206293 -8.39601e-05 0.0
0.214501 -0.000113029 0.0
0.238527 -0.000100286 0.0
0.24735 -0.000104407 0.0
0.229607 -0.000127563 0.0
0.226323 -9.01534e-05 0.0
0.249983 -0.000104918 0.0
0.246426 -0.000102084 0.0
0.23668 -9.61419e-05 0.0
0 0 0.0
0.0322511 -6.17132e-06 0.0
0.095697 -3.62291e-05 0.0
0.06943 -2.73047e-05 0.0
0.178876 -6.3312e-05 0.0
0.206269 -8.45949e-05 0.0
0.127476 -4.88736e-05 0.0
0.165873 -8.00663e-05 0.0
0.152325 -5.74145e-05 0.0
0 0 0.0
0.0360793 -5.29404e-06 0.0
0.0621954 -1.65243e-05 0.0
0.0956295 -3.69273e-05 0.0
0.127525 -4.93374e-05 0.0
0.156661 -7.15772e-05 0.0
0.115601 -5.66023e-05 0.0
0.193626 -0.000117809 0.0
0.218141 -0.000148952 0.0
0.24094 -0.000135882 0.0
0.247737 -0.000140899 0.0
0.25 -0.000142429 0.0
0.234398 -0.000172341 0.0
0.229576 -0.000125802 0.0
0.247727 -0.000140588 0.0
0.240919 -0.000135641 0.0
0 0 0.0
0.034488 -8.53657e-06 0.0
0.103122 -5.55886e-05 0.0
0.062304 -2.76496e-05 0.0
0.189727 -0.000100195 0.0
0.212989 -0.000139765 0.0
0.170534 -0.00010846 0.0
0.144329 -8.05732e-05 0.0
0 0 0.0
0.0398975 -9.09833e-06 0.0
0.0997856 -5.05793e-05 0.0
0.0693205 -2.687e-05 0.0
0.170625 -0.000108572 0.0
0.144422 -8.23111e-05 0.0
0.124378 -8.34146e-05 0.0
0.18365 -0.000137118 0.0
0.204132 -0.000164066 0.0
0.222038 -0.000193064 0.0
0.249109 -0.000186809 0.0
0.244027 -0.000181851 0.0
0.24912 -0.00018682 0.0
0.238551 -0.000219183 0.0
0.234353 -0.000171325 0.0
0.244883 -0.000196875 0.0
0 0 0.0
0.0322929 -9.03634e-06 0.0
0.094075 -5.84049e-05 0.0
0.0652185 -3.49452e-05 0.0
0.196696 -0.000149897 0.0
0.217871 -0.000184027 0.0
0.177437 -0.000152085 0.0
0.148689 -0.000106273 0.0
0.120328 -7.44896e-05 0.0
0 0 0.0
0.03439 -8.62746e-06 0.0
0.0716433 -3.5096e-05 0.0
0.152425 -0.000119115 0.0
0.127615 -0.000103473 0.0
0.187579 -0.000169866 0.0
0.211951 -0.000211442 0.0
0.248605 -0.000231679 0.0
0.225685 -0.000239463 0.0
0.249783 -0.000233359 0.0
0.246474 -0.000229444 0.0
0.242064 -0.000268281 0.0
0.23849 -0.000218559 0.0
0 0 0.0
0.0338755 -1.13181e-05 0.0
0.0999941 -7.79074e-05 0.0
0.0695465 -4.64934e-05 0.0
0.20626 -0.000197993 0.0
0.222404 -0.000230682 0.0
0.189975 -0.000205626 0.0
0.168253 -0.000166195 0.0
0.143003 -0.000127606 0.0
0.124193 -9.42771e-05 0.0
0.0970831 -6.34053e-05 0.0
0 0 0.0
0.0360199 -1.09791e-05 0.0
0.0673137 -3.75964e-05 0.0
0.130335 -0.000124929 0.0
0.168483 -0.000166981 0.0
0.199473 -0.000217696 0.0
0.218379 -0.000255358 0.0
0.241992 -0.000268913 0.0
0.25 -0.000280685 0.0
0.247989 -0.000277415 0.0
0.229081 -0.000288013 0.0
0.244938 -0.000319183 0.0
0.248741 -0.000294462 0.0
0.234445 -0.000275439 0.0
0 0 0.0
0.0362341 -1.45832e-05 0.0
0.12266 -0.000127908 0.0
0.0712309 -5.49623e-05 0.0
0.208349 -0.000241896 0.0
0.225126 -0.000287688 0.0
0.198048 -0.000251013 0.0
0.177725 -0.000207998 0.0
0.146525 -0.000153544 0.0
0.119131 -0.000107415 0.0
0.0970501 -7.18858e-05 0.0
0 0 0.0
0.0349374 -1.22909e-05 0.0
0.0672762 -4.23141e-05 0.0
0.152302 -0.000174415 0.0
0.178018 -0.000212917 0.0
0.210116 -0.000269203 0.0
0.244858 -0.000319053 0.0
0.24942 -0.000327761 0.0
0.232226 -0.000338493 0.0
0.244197 -0.000362878 0.0
0.249988 -0.000387158 0.0
0.249132 -0.000344313 0.0
0.235912 -0.000329522 0.0
0.212963 -0.00032837 0.0
0 0 0.0
0.0371632 -1.71732e-05 0.0
0.141111 -0.000177861 0.0
0.099959 -0.000107707 0.0
0.0666016 -5.35628e-05 0.0
0.213628 -0.000293993 0.0
0.186607 -0.000255981 0.0
0.165084 -0.000208445 0.0
0.122239 -0.000128698 0.0
0.0928646 -7.88081e-05 0.0
0 0 0.0
0.0349074 -1.37215e-05 0.0
0.0642247 -4.49341e-05 0.0
0.165598 -0.000222757 0.0
0.186968 -0.000261728 0.0
0.158125 -0.000232942 0.0
0.247091 -0.000372541 0.0
0.248691 -0.000427824 0.0
0.231052 -0.000379843 0.0
0.240526 -0.000405293 0.0
0.248757 -0.000427516 0.0
0.240203 -0.000378811 0.0
0.229256 -0.000372058 0.0
0.199182 -0.00032139 0.0
0.218634 -0.00038389 0.0
0 0 0.0
0.0346512 -1.68515e-05 0.0
0.126171 -0.000172805 0.0
0.0681803 -6.05026e-05 0.0
0.0988212 -0.000117249 0.0
0.208082 -0.000335851 0.0
0.189759 -0.000292967 0.0
0.168125 -0.000243327 0.0
0.140618 -0.00017655 0.0
0.0954073 -9.36828e-05 0.0
0 0 0.0
0.0332511 -1.40425e-05 0.0
0.0660537 -5.34836e-05 0.0
0.183224 -0.000303606 0.0
0.159264 -0.000260543 0.0
0.244898 -0.000440907 0.0
0.24966 -0.000483769 0.0
0.235961 -0.000444074 0.0
0.244858 -0.000469283 0.0
0.249378 -0.000482719 0.0
0.23862 -0.000446263 0.0
0.21842 -0.00040337 0.0
0.203105 -0.000374631 0.0
0.223371 -0.000438619 0.0
0 0 0.0
0.0478085 -3.35898e-05 0.0
0.127922 -0.000196907 0.0
0.0904258 -0.000110141 0.0
0.202607 -0.000360726 0.0
0.177966 -0.000296908 0.0
0.147886 -0.000223152 0.0
0.118718 -0.000146631 0.0
0.0780248 -7.8729e-05 0.0
0 0 0.0
0.034229 -1.65426e-05 0.0
0.187833 -0.000359168 0.0
0.160402 -0.000289763 0.0
0.246451 -0.00050334 0.0
0.249999 -0.000542186 0.0
0.24014 -0.000512243 0.0
0.247577 -0.000564356 0.0
0.239859 -0.000511448 0.0
0.227292 -0.000473563 0.0
0.209729 -0.000421466 0.0
0.227724 -0.000497478 0.0
0.21029 -0.000439526 0.0
0 0 0.0
0.0478723 -3.74865e-05 0.0
0.128017 -0.000219718 0.0
0.090508 -0.00012109 0.0
0.187169 -0.000357009 0.0
0.159617 -0.000280192 0.0
0.0471952 -3.29883e-05 0.0
0.127082 -0.000194253 0.0
0.0895869 -0.00010796 0.0
0 0 0.0
0.187908 -0.000403408 0.0
0.160492 -0.000324184 0.0
0.24742 -0.000570469 0.0
0.249999 -0.000610391 0.0
0.240172 -0.000577167 0.0
0.247594 -0.000634101 0.0
0.227245 -0.00053265 0.0
0.239827 -0.000575363 0.0
0.187094 -0.000400691 0.0
0.209666 -0.000473728 0.0
0.227764 -0.000545865 0.0
0.210355 -0.000493872 0.0
0 0 0.0
0.0479424 -4.10723e-05 0.0
0.128123 -0.000244231 0.0
0.0906194 -0.00013576 0.0
0.126987 -0.00021762 0.0
0.159531 -0.000314178 0.0
0.0471355 -3.6592e-05 0.0
0.0894971 -0.000119981 0.0
0 0 0.0
0.187994 -0.000450416 0.0
0.160593 -0.000361327 0.0
0.247402 -0.000639751 0.0
0.249998 -0.000683421 0.0
0.227808 -0.000598662 0.0
0.240223 -0.000674717 0.0
0.247612 -0.000709495 0.0
0.2272 -0.00058266 0.0
0.23979 -0.00064398 0.0
0.187031 -0.000434279 0.0
0.209595 -0.000529544 0.0
0.210428 -0.000552063 0.0
0 0 0.0
0.0480249 -4.56313e-05 0.0
0.12826 -0.000274621 0.0
0.0907328 -0.000149859 0.0
0.126899 -0.000237672 0.0
0.159433 -0.000349713 0.0
0.047063 -4.06789e-05 0.0
0.0893977 -0.000132505 0.0
0 0 0.0
0.160706 -0.000400837 0.0
0.188117 -0.000513577 0.0
0.247382 -0.000714062 0.0
0.249997 -0.000761932 0.0
0.240257 -0.000736952 0.0
0.227892 -0.000692599 0.0
0.247633 -0.000789604 0.0
0.239748 -0.000717063 0.0
0.227152 -0.000637316 0.0
0.186938 -0.000482777 0.0
0.209517 -0.000588835 0.0
0.21051 -0.000615308 0.0
0 0 0.0
0.0481078 -5.0303e-05 0.0
0.128374 -0.000299365 0.0
0.0908579 -0.000165138 0.0
0.126784 -0.00026313 0.0
0.159323 -0.000388233 0.0
0 0 0.0
0.0892866 -0.000146759 0.0
0.0469897 -4.47713e-05 0.0
0.188227 -0.00057175 0.0
0.160833 -0.000444408 0.0
0.22795 -0.000755761 0.0
0.247359 -0.000794744 0.0
0.249996 -0.000847204 0.0
0.24765 -0.000857466 0.0
0.240293 -0.000802259 0.0
0.239702 -0.000796292 0.0
0.227086 -0.000708085 0.0
0.186807 -0.000548235 0.0
0.209428 -0.000653731 0.0
0.210602 -0.000683222 0.0
0 0 0.0
0.0482017 -5.52513e-05 0.0
0.090982 -0.000179577 0.0
0.12852 -0.000330033 0.0
0.126637 -0.000295162 0.0
0.159202 -0.000429838 0.0
0 0 0.0
0.0469018 -4.9418e-05 0.0
0.0891778 -0.000160076 0.0
0.188321 -0.00061727 0.0
0.160975 -0.000492007 0.0
0.228011 -0.000823974 0.0
0.240364 -0.000928316 0.0
0.247333 -0.000882347 0.0
0.249994 -0.000939295 0.0
0.24767 -0.000929138 0.0
0.23965 -0.000881999 0.0
0.227013 -0.000784806 0.0
0.186719 -0.000591651 0.0
0.20933 -0.000722748 0.0
0.210705 -0.000758367 0.0
0 0 0.0
0.0483058 -6.03423e-05 0.0
0.128709 -0.00036994 0.0
0.0911495 -0.000199793 0.0
0.126515 -0.000321497 0.0
0.159067 -0.000475076 0.0
0.0468135 -5.39796e-05 0.0
0 0 0.0
0.0890309 -0.000178487 0.0
0.161132 -0.000544176 0.0
0.18849 -0.000700463 0.0
0.228127 -0.000947091 0.0
0.240422 -0.00103118 0.0
0.247695 -0.00103068 0.0
0.247289 -0.00102019 0.0
0.249991 -0.00104168 0.0
0.239591 -0.000977165 0.0
0.226902 -0.00089641 0.0
0.186558 -0.000668802 0.0
0.209221 -0.000798941 0.0
0.210818 -0.000840652 0.0
0 0 0.0
0.0484184 -6.55487e-05 0.0
0.0913176 -0.000217944 0.0
0.161307 -0.000599871 0.0
0.128865 -0.000400803 0.0
0.126359 -0.000355203 0.0
0.158948 -0.000514249 0.0
0.0467102 -6.02137e-05 0.0
0 0 0.0
0.0888961 -0.000195837 0.0
0.210925 -0.000917886 0.0
0.188607 -0.000757986 0.0
0.240471 -0.00111891 0.0
0.228222 -0.0010535 0.0
0.247737 -0.00119244 0.0
0.249987 -0.00115198 0.0
0.247262 -0.00110244 0.0
0.239525 -0.00107833 0.0
0.226824 -0.000971698 0.0
0.18645 -0.000719629 0.0
0.158754 -0.000578994 0.0
0.209101 -0.000879861 0.0
0 0 0.0
0.091486 -0.000237051 0.0
0.0485505 -7.20385e-05 0.0
0.161463 -0.000651841 0.0
0.129097 -0.000449715 0.0
0.126188 -0.000393009 0.0
0 0 0.0
0.0465957 -6.70402e-05 0.0
0.0887161 -0.000219498 0.0
0.211044 -0.00100124 0.0
0.188818 -0.000864578 0.0
0.240525 -0.00121408 0.0
0.228328 -0.00117042 0.0
0.247759 -0.00129326 0.0
0.24998 -0.00127427 0.0
0.247232 -0.00119289 0.0
0.158611 -0.000623512 0.0
0.208989 -0.000953652 0.0
0.239451 -0.0011872 0.0
0.22674 -0.00105311 0.0
0.186295 -0.000792696 0.0
0 0 0.0
0.0486793 -7.77488e-05 0.0
0.091688 -0.000259438 0.0
0.161679 -0.000721697 0.0
0.129328 -0.000497005 0.0
0.0885332 -0.00024315 0.0
0.125969 -0.000440964 0.0
0 0 0.0
0.0464625 -7.53586e-05 0.0
0.211195 -0.00111257 0.0
0.189013 -0.000962091 0.0
0.240596 -0.00134649 0.0
0.228445 -0.0013018 0.0
0.247783 -0.00140181 0.0
0.249972 -0.00140963 0.0
0.247165 -0.00137206 0.0
0.158421 -0.000685479 0.0
0.239368 -0.00130758 0.0
0.208868 -0.00102988 0.0
0.226587 -0.00119751 0.0
0.186081 -0.000893736 0.0
0 0 0.0
0.0919375 -0.000288534 0.0
0.0488262 -8.48679e-05 0.0
0.16197 -0.0008193 0.0
0.129583 -0.000551353 0.0
0.0883537 -0.000267227 0.0
0.12576 -0.000488138 0.0
0 0 0.0
0.046319 -8.45496e-05 0.0
0.189228 -0.00107461 0.0
0.211364 -0.00124012 0.0
0.240674 -0.00149744 0.0
0.247815 -0.00155056 0.0
0.228572 -0.00144935 0.0
0.249958 -0.00155516 0.0
0.24711 -0.00151531 0.0
0.239274 -0.00143527 0.0
0.249513 -0.00167877 0.0
0.158211 -0.000751543 0.0
0.226456 -0.00131406 0.0
0.20866 -0.00115897 0.0
0.18594 -0.000956444 0.0
0 0 0.0
0.0921684 -0.000317265 0.0
0.049 -9.40672e-05 0.0
0.162192 -0.000897261 0.0
0.129871 -0.000615356 0.0
0.0881357 -0.00029594 0.0
0.125567 -0.000530155 0.0
0 0 0.0
0.0461691 -9.41391e-05 0.0
0.18947 -0.00120344 0.0
0.211551 -0.00138631 0.0
0.240751 -0.0016627 0.0
0.22871 -0.00161999 0.0
0.247854 -0.0018029 0.0
0.249124 -0.00165947 0.0
0.243746 -0.00159321 0.0
0.233386 -0.00148324 0.0
0.249923 -0.00180805 0.0
0.157986 -0.000820281 0.0
0.218047 -0.00133611 0.0
0.203265 -0.0012076 0.0
0.185686 -0.0010642 0.0
0 0 0.0
0.0924506 -0.000355705 0.0
0.0491809 -0.00010371 0.0
0.162495 -0.00101018 0.0
0.130196 -0.000693491 0.0
0.125285 -0.000588702 0.0
0.0878965 -0.000326481 0.0
0 0 0.0
0.0459861 -0.000104426 0.0
0.189741 -0.00135517 0.0
0.211757 -0.00155505 0.0
0.247874 -0.0019985 0.0
0.228859 -0.00181279 0.0
0.240839 -0.0018538 0.0
0.247 -0.00176048 0.0
0.239092 -0.00166308 0.0
0.226205 -0.00152185 0.0
0.249884 -0.00199718 0.0
0.15774 -0.000891062 0.0
0.208346 -0.00134087 0.0
0.185458 -0.0011544 0.0
0 0 0.0
0.0493765 -0.000115908 0.0
0.092771 -0.000404859 0.0
0.130506 -0.000773253 0.0
0.19004 -0.00153148 0.0
0.162839 -0.0011454 0.0
0.125018 -0.000639274 0.0
0.087636 -0.000357315 0.0
0.0457909 -0.000115478 0.0
0 0 0.0
0.22899 -0.00199488 0.0
0.211984 -0.00175346 0.0
0.247888 -0.00217029 0.0
0.240922 -0.00207232 0.0
0.226026 -0.00165479 0.0
0.246908 -0.00193439 0.0
0.238952 -0.00181847 0.0
0.249835 -0.00220611 0.0
0.185214 -0.00124142 0.0
0.157422 -0.000969537 0.0
0.208064 -0.00148524 0.0
0 0 0.0
0.0496102 -0.000134589 0.0
0.0931804 -0.000472231 0.0
0.130917 -0.000887313 0.0
0.190286 -0.00169082 0.0
0.163306 -0.00135103 0.0
0.124734 -0.000685658 0.0
0.0873296 -0.000388155 0.0
0.0455813 -0.000125247 0.0
0 0 0.0
0.12443 -0.000726542 0.0
0.229125 -0.002191 0.0
0.212308 -0.00206509 0.0
0.241038 -0.00242947 0.0
0.247894 -0.00235406 0.0
0.225746 -0.00184224 0.0
0.238792 -0.00198209 0.0
0.246798 -0.0021256 0.0
0.24976 -0.00243802 0.0
0.184945 -0.00132516 0.0
0.15713 -0.00103286 0.0
0.207818 -0.00159912 0.0
0 0 0.0
0.0498814 -0.000156074 0.0
0.0936147 -0.000551833 0.0
0.131385 -0.00103032 0.0
0.190648 -0.00192904 0.0
0.163754 -0.00156065 0.0
0.0453512 -0.000136091 0.0
0.0870276 -0.000414318 0.0
0 0 0.0
0.12416 -0.000750647 0.0
0.229296 -0.00247622 0.0
0.212582 -0.00234968 0.0
0.241112 -0.0027241 0.0
0.247884 -0.00262403 0.0
0.225541 -0.00196374 0.0
0.238603 -0.0021564 0.0
0.249664 -0.00269533 0.0
0.246591 -0.00243137 0.0
0.184723 -0.00138089 0.0
0.156818 -0.00108326 0.0
0.207541 -0.00170629 0.0
0 0 0.0
0.0501983 -0.000184472 0.0
0.0941216 -0.000649343 0.0
0.132008 -0.00123262 0.0
0.191144 -0.00229272 0.0
0.212874 -0.00268442 0.0
0.164252 -0.00181455 0.0
0.045125 -0.000142674 0.0
0.0867159 -0.000433181 0.0
0 0 0.0
0.123828 -0.0007694 0.0
0.22953 -0.00291916 0.0
0.241165 -0.00299474 0.0
0.247856 -0.00292611 0.0
0.249565 -0.00290983 0.0
0.225316 -0.00208103 0.0
0.23837 -0.00234681 0.0
0.246402 -0.0026641 0.0
0.156482 -0.00111981 0.0
0.184403 -0.00144941 0.0
0.207224 -0.00180986 0.0
0 0 0.0
0.0506006 -0.000221356 0.0
0.094722 -0.000774107 0.0
0.132643 -0.00145464 0.0
0.191476 -0.00255674 0.0
0.21318 -0.00306425 0.0
0.164815 -0.00211619 0.0
0.0448773 -0.000148007 0.0
0.0863968 -0.000443404 0.0
0 0 0.0
0.156196 -0.00113074 0.0
0.0860819 -0.000440831 0.0
0.123434 -0.000771318 0.0
0.229703 -0.00332807 0.0
0.241201 -0.00328152 0.0
0.247761 -0.00342995 0.0
0.24945 -0.00313489 0.0
0.246229 -0.00286273 0.0
0.225 -0.00222666 0.0
0.237981 -0.00262728 0.0
0.18395 -0.00151371 0.0
0.206922 -0.00189785 0.0
0.229847 -0.00368948 0.0
0 0 0.0
0.0510565 -0.000264986 0.0
0.133379 -0.00172161 0.0
0.0954276 -0.000925732 0.0
0.213507 -0.00351733 0.0
0.192073 -0.00306479 0.0
0.165446 -0.00247285 0.0
0.0446178 -0.000147443 0.0
0 0 0.0
0.18364 -0.0015448 0.0
0.155813 -0.0011345 0.0
0.123085 -0.000759101 0.0
0.0443614 -0.000150336 0.0
0.0857697 -0.000430601 0.0
0.241236 -0.00369631 0.0
0.247675 -0.00374047 0.0
0.249247 -0.00346887 0.0
0.249063 -0.00374868 0.0
0.246018 -0.00306961 0.0
0.224622 -0.00237967 0.0
0.237618 -0.00284462 0.0
0.206577 -0.00196959 0.0
0.229967 -0.00409578 0.0
0.0515761 -0.000315769 0.0
0 0 0.0
0.13409 -0.0019819 0.0
0.0962571 -0.00110088 0.0
0.213842 -0.00403211 0.0
0.192464 -0.00342377 0.0
0.166159 -0.00289227 0.0
0 0 0.0
0.183198 -0.0015644 0.0
0.15532 -0.00111161 0.0
0.12279 -0.000726338 0.0
0.044135 -0.000146159 0.0
0.0854714 -0.000411267 0.0
0.241225 -0.00437481 0.0
0.247568 -0.00406982 0.0
0.248835 -0.00404163 0.0
0.245538 -0.0034912 0.0
0.224187 -0.00252859 0.0
0.237204 -0.0030719 0.0
0.205972 -0.00207935 0.0
0.230121 -0.00465912 0.0
0 0 0.0
0.0522246 -0.000379733 0.0
0.135045 -0.00233698 0.0
0.0971397 -0.00128828 0.0
0.166957 -0.00337086 0.0
0.21419 -0.00462632 0.0
0.193177 -0.00410082 0.0
0 0 0.0
0 0 0.0
0.182688 -0.00157545 0.0
0.154877 -0.00107722 0.0
0.122446 -0.000682376 0.0
0.0851989 -0.00038432 0.0
0.0439094 -0.000139047 0.0
0.241169 -0.00493161 0.0
0.247368 -0.00455286 0.0
0.236805 -0.00326862 0.0
0.248477 -0.00447361 0.0
0.245098 -0.00382773 0.0
0.223667 -0.00268664 0.0
0.205413 -0.00215443 0.0
0.241089 -0.00543474 0.0
0.230232 -0.00529632 0.0
0.052998 -0.000452628 0.0
0.0982742 -0.00152079 0.0
0.136147 -0.00274942 0.0
0.167674 -0.00381576 0.0
0.214551 -0.00529332 0.0
0.193634 -0.00458277 0.0
0 0 0.0
0 0 0.0
0.154504 -0.00103345 0.0
0.181982 -0.00156564 0.0
0.0849771 -0.000350427 0.0
0.122057 -0.000618372 0.0
0.0436897 -0.000131908 0.0
0.246978 -0.00532913 0.0
0.24802 -0.00495841 0.0
0.204784 -0.00222471 0.0
0.236351 -0.00346896 0.0
0.244709 -0.0041112 0.0
0.222835 -0.00290407 0.0
0.240977 -0.00595948 0.0
0.230368 -0.00628192 0.0
0.214912 -0.00605239 0.0
0.0539671 -0.000543099 0.0
0.0995982 -0.00179853 0.0
0.137622 -0.00329172 0.0
0.168667 -0.00442241 0.0
0.194476 -0.00547299 0.0
0 0 0.0
0 0 0.0
0.153918 -0.000964631 0.0
0.181333 -0.00156016 0.0
0.0847485 -0.000307327 0.0
0.121736 -0.000558267 0.0
0.0434965 -0.000121157 0.0
0.244253 -0.00441594 0.0
0.247474 -0.00548107 0.0
0.246587 -0.00596587 0.0
0.20406 -0.00229663 0.0
0.235693 -0.00374685 0.0
0.222086 -0.00309137 0.0
0.180628 -0.00155393 0.0
0.240669 -0.00701974 0.0
0 0 0.0
0.230393 -0.00713356 0.0
0.195212 -0.00629966 0.0
0.215272 -0.00689406 0.0
0.0550107 -0.000639667 0.0
0.138891 -0.0037612 0.0
0.101314 -0.00215727 0.0
0.170012 -0.00528391 0.0
0 0 0.0
0 0 0.0
0 0 0.0
0 0 0.0
0 0 0.0
0.0433423 -0.000110578 0.0
0.121434 -0.0005004 0.0
0.153397 -0.000912623 0.0
0.08457 -0.000277782 0.0
0.243567 -0.00482818 0.0
0.246808 -0.00606719 0.0
0.246124 -0.00666297 0.0
0.221389 -0.00323655 0.0
0.203232 -0.00237579 0.0
0.234574 -0.00417389 0.0
0.202453 -0.00244945 0.0
0.180041 -0.00155172 0.0
0.240337 -0.00789327 0.0
0.230389 -0.00805676 0.0
0 0 0.0
9.52025e-05 -3.72278e-05 0.0
0 0 0.0
-0.000382687 0.00231076 0.0
0.215642 -0.00785009 0.0
0.195815 -0.00697532 0.0
0.0563622 -0.000768457 0.0
0.140557 -0.00437077 0.0
0.103135 -0.00253674 0.0
0.171301 -0.00610857 0.0
0 0 0.0
0 0 0.0
0 0 0.0
-0.000288984 0.00128418 0.0
-3.41162e-05 -9.10991e-05 0.0
1.15343e-05 -3.15507e-05 0.0
0 0 0.0
0.0431834 -0.000104179 0.0
0.121182 -0.000455748 0.0
0.152851 -0.0008709 0.0
0.0843941 -0.000248306 0.0
0.242762 -0.00529356 0.0
0.246019 -0.00670989 0.0
0.245543 -0.00742782 0.0
0.220606 -0.00340821 0.0
0.233816 -0.00445889 0.0
0.201594 -0.00253033 0.0
0.178999 -0.0015734 0.0
0.239931 -0.00884337 0.0
0.233184 -0.00898843 0.0
0.22374 -0.00889839 0.0
0 0 0.0
0.000110856 1.41808e-05 0.0
0 0 0.0
0 0 0.0
-0.00134714 0.00513584 0.0
-0.00131689 0.00341905 0.0
0.21157 -0.00859948 0.0
0.196657 -0.00798109 0.0
0.10503 -0.00293603 0.0
0.0578108 -0.000918231 0.0
0.142447 -0.00508141 0.0
0.172719 -0.00704188 0.0
0 0 0.0
-0.000489878 0.000667255 0.0
-0.00090823 0.00180405 0.0
-0.000321421 0.000273787 0.0
-0.000299961 0.000269486 0.0
0 0 0.0
0.0430403 -9.99533e-05 0.0
0.120899 -0.000420437 0.0
0.152287 -0.00083892 0.0
0.0842505 -0.000232033 0.0
0.241817 -0.00580044 0.0
0.245093 -0.00740918 0.0
0.244839 -0.00826661 0.0
0.219139 -0.00372282 0.0
0.232971 -0.00474939 0.0
0.200475 -0.0026612 0.0
0.151711 -0.000847555 0.0
0.178079 -0.00162585 0.0
0.239523 -0.00966348 0.0
0.230241 -0.0098319 0.0
0.216237 -0.00975238 0.0
0 0 0.0
-0.000199848 0.000151891 0.0
0 0 0.0
0 0 0.0
0 0 0.0
0 0 0.0
-0.00239948 0.00363303 0.0
-0.000368185 0.00437747 0.0
-0.00136166 0.00660453 0.0
-0.00318355 0.00863754 0.0
-0.00272091 0.00596509 0.0
0 0 0.0
-5.07107e-05 0.00632769 0.0
0.197778 -0.00944656 0.0
0.173967 -0.00791124 0.0
0 0 0.0
0.0597142 -0.00112715 0.0
0.107439 -0.00347451 0.0
0.144944 -0.00609962 0.0
0 0 0.0
0 0 0.0
-0.00147459 0.0017897 0.0
-0.00115492 0.00102797 0.0