# vtk DataFile Version 3.0
Mesh NS-CD Problem
ASCII
DATASET UNSTRUCTURED_GRID
POINTS 10839 float
-2 0.3 0.0
-2 0.4 0.0
-2 0.35 0.0
-2 0.45 0.0
-2 0.5 0.0
-2 0.55 0.0
-2 0 0.0
-2 0.05 0.0
-2 0.85 0.0
-2 0.9 0.0
-2 0.1 0.0
-2 0.15 0.0
-2 0.25 0.0
-2 0.2 0.0
-1.96653 0.266667 0.0
-1.96524 0.415385 0.0
-1.96485 0.315 0.0
-1.96348 0.363636 0.0
-1.96414 0.464286 0.0
-2 0.6 0.0
-1.96538 0.584615 0.0
-1.96538 0.538462 0.0
-1.94979 0 0.0
-1.96653 0.0666666 0.0
-1.93306 0.0333333 0.0
-2 0.8 0.0
-2 0.75 0.0
-2 0.7 0.0
-2 0.65 0.0
-1.96249 0.7375 0.0
-1.96666 0.833333 0.0
-2 1 0.0
-2 0.95 0.0
-1.96249 0.8875 0.0
-1.96666 0.933333 0.0
-1.96234 0.1125 0.0
-1.96653 0.166667 0.0
-1.93724 0.225 0.0
-1.92971 0.28 0.0
-1.93048 0.380769 0.0
-1.93048 0.423077 0.0
-1.89958 0.3375 0.0
-1.9292 0.484203 0.0
-1.92117 0.530907 0.0
-1.96363 0.636364 0.0
-1.93076 0.576923 0.0
-1.89958 0 0.0
-1.88703 0.0375 0.0
-1.90963 0.08 0.0
-1.86611 0.0666666 0.0
-1.93749 0.775 0.0
-1.93635 0.672727 0.0
-1.92999 0.72 0.0
-1.93332 0.866667 0.0
-1.92856 0.821429 0.0
-1.94999 1 0.0
-1.92499 0.9625 0.0
-1.92499 0.925 0.0
-1.89998 0.9 0.0
-1.89958 0.125 0.0
-1.92827 0.178571 0.0
-1.89958 0.233333 0.0
-1.89045 0.290909 0.0
-1.86096 0.311538 0.0
-1.89241 0.392857 0.0
-1.89334 0.448489 0.0
-1.85655 0.357143 0.0
-1.89614 0.653846 0.0
-1.89427 0.504121 0.0
-1.8952 0.559753 0.0
-1.89614 0.615385 0.0
-1.84937 0 0.0
-1.83264 0.0333333 0.0
-1.85655 0.107143 0.0
-1.81172 0.075 0.0
-1.89998 0.766667 0.0
-1.89089 0.709091 0.0
-1.87498 0.85 0.0
-1.85998 0.79 0.0
-1.88748 0.8125 0.0
-1.89998 1 0.0
-1.88748 0.9625 0.0
-1.86664 0.933333 0.0
-1.85712 0.892857 0.0
-1.87448 0.15 0.0
-1.86611 0.194444 0.0
-1.83264 0.133333 0.0
-1.83264 0.2625 0.0
-1.82068 0.321429 0.0
-1.85664 0.404762 0.0
-1.85674 0.452381 0.0
-1.85683 0.5 0.0
-1.81184 0.375 0.0
-1.85712 0.642857 0.0
-1.85693 0.547619 0.0
-1.85702 0.595238 0.0
-1.79917 0 0.0
-1.78482 0.0357143 0.0
-1.79917 0.116667 0.0
-1.76569 0.0666666 0.0
-1.85452 0.745455 0.0
-1.82689 0.692308 0.0
-1.81815 0.781818 0.0
-1.82497 0.825 0.0
-1.84997 1 0.0
-1.8333 0.958333 0.0
-1.81247 0.8875 0.0
-1.81247 0.925 0.0
-1.81742 0.218182 0.0
-1.82427 0.175 0.0
-1.77634 0.145455 0.0
-1.79144 0.242308 0.0
-1.78482 0.285714 0.0
-1.77469 0.332653 0.0
-1.81215 0.529762 0.0
-1.81194 0.422619 0.0
-1.81203 0.470238 0.0
-1.76714 0.392857 0.0
-1.81234 0.625 0.0
-1.79732 0.571429 0.0
-1.74896 0 0.0
-1.73222 0.0333333 0.0
-1.75398 0.105 0.0
-1.71883 0.07 0.0
-1.79227 0.730769 0.0
-1.78007 0.679121 0.0
-1.75765 0.769231 0.0
-1.78178 0.818182 0.0
-1.78996 0.86 0.0
-1.79996 1 0.0
-1.78568 0.964286 0.0
-1.76663 0.922222 0.0
-1.76569 0.1875 0.0
-1.73222 0.15 0.0
-1.74896 0.25 0.0
-1.73714 0.304762 0.0
-1.76743 0.537202 0.0
-1.72869 0.343878 0.0
-1.76732 0.485119 0.0
-1.76723 0.440476 0.0
-1.72243 0.410714 0.0
-1.76757 0.607143 0.0
-1.69875 0 0.0
-1.68369 0.035 0.0
-1.69875 0.1125 0.0
-1.66528 0.075 0.0
-1.74341 0.708974 0.0
-1.73324 0.665934 0.0
-1.70441 0.74478 0.0
-1.71423 0.785714 0.0
-1.72303 0.826923 0.0
-1.74541 0.854545 0.0
-1.74541 0.890909 0.0
-1.74996 1 0.0
-1.73745 0.9625 0.0
-1.71359 0.927273 0.0
-1.68716 0.153846 0.0
-1.7131 0.214286 0.0
-1.70725 0.275 0.0
-1.69712 0.321939 0.0
-1.72279 0.589286 0.0
-1.72261 0.5 0.0
-1.7227 0.544643 0.0
-1.6827 0.355102 0.0
-1.67773 0.428571 0.0
-1.70763 0.464286 0.0
-1.70369 0.62449 0.0
-1.64854 0 0.0
-1.63181 0.0375 0.0
-1.64137 0.142857 0.0
-1.61764 0.0769231 0.0
-1.69458 0.703846 0.0
-1.67471 0.657437 0.0
-1.66143 0.727637 0.0
-1.67125 0.768571 0.0
-1.67851 0.821429 0.0
-1.68841 0.861538 0.0
-1.70904 0.890909 0.0
-1.69995 1 0.0
-1.68176 0.963636 0.0
-1.67267 0.927273 0.0
-1.65427 0.187143 0.0
-1.66718 0.231429 0.0
-1.66554 0.3 0.0
-1.67802 0.571429 0.0
-1.67792 0.523809 0.0
-1.6367 0.366327 0.0
-1.63682 0.423469 0.0
-1.62568 0.502976 0.0
-1.6629 0.470238 0.0
-1.65254 0.618367 0.0
-1.6059 0.307143 0.0
-1.59833 0 0.0
-1.58288 0.0384615 0.0
-1.60563 0.169643 0.0
-1.58179 0.112271 0.0
-1.56964 0.0714286 0.0
-1.64574 0.690385 0.0
-1.62827 0.751429 0.0
-1.63371 0.791071 0.0
-1.64279 0.857143 0.0
-1.65378 0.896154 0.0
-1.64994 1 0.0
-1.6363 0.963636 0.0
-1.61916 0.930769 0.0
-1.61345 0.209107 0.0
-1.62126 0.248571 0.0
-1.56989 0.196429 0.0
-1.63324 0.553571 0.0
-1.58846 0.535714 0.0
-1.59408 0.361905 0.0
-1.59161 0.402211 0.0
-1.58832 0.464286 0.0
-1.61504 0.598581 0.0
-1.59683 0.64359 0.0
-1.57899 0.274107 0.0
-1.56176 0.322381 0.0
-1.54812 0 0.0
-1.53378 0.0357143 0.0
-1.54593 0.147619 0.0
-1.53385 0.0732143 0.0
-1.53393 0.110714 0.0
-1.58522 0.704286 0.0
-1.58709 0.745 0.0
-1.58896 0.785714 0.0
-1.60695 0.830357 0.0
-1.60707 0.892857 0.0
-1.59993 1 0.0
-1.58454 0.965385 0.0
-1.57135 0.928571 0.0
-1.55209 0.241071 0.0
-1.5291 0.198214 0.0
-1.56936 0.570918 0.0
-1.54369 0.517857 0.0
-1.5464 0.380952 0.0
-1.54564 0.427721 0.0
-1.54488 0.47449 0.0
-1.55026 0.606122 0.0
-1.54222 0.677143 0.0
-1.52943 0.282857 0.0
-1.52143 0.33619 0.0
-1.49792 0 0.0
-1.49802 0.05 0.0
-1.49822 0.15 0.0
-1.49312 0.1 0.0
-1.5423 0.717143 0.0
-1.54419 0.767857 0.0
-1.54727 0.819048 0.0
-1.57122 0.861905 0.0
-1.53553 0.914286 0.0
-1.54992 1 0.0
-1.53563 0.964286 0.0
-1.49842 0.25 0.0
-1.48831 0.2 0.0
-1.5214 0.558929 0.0
-1.49891 0.5 0.0
-1.49871 0.4 0.0
-1.47631 0.45 0.0
-1.49911 0.6 0.0
-1.49921 0.65 0.0
-1.49931 0.7 0.0
-1.48111 0.35 0.0
-1.48351 0.3 0.0
-1.44771 0 0.0
-1.44782 0.05 0.0
-1.44804 0.15 0.0
-1.44793 0.1 0.0
-1.49941 0.75 0.0
-1.49951 0.8 0.0
-1.49981 0.95 0.0
-1.49961 0.85 0.0
-1.49971 0.9 0.0
-1.49991 1 0.0
-1.44826 0.25 0.0
-1.43815 0.2 0.0
-1.47151 0.55 0.0
-1.44881 0.5 0.0
-1.44859 0.4 0.0
-1.42619 0.45 0.0
-1.44913 0.65 0.0
-1.44902 0.6 0.0
-1.44935 0.75 0.0
-1.44924 0.7 0.0
-1.43972 0.35 0.0
-1.43336 0.3 0.0
-1.3975 0 0.0
-1.39762 0.05 0.0
-1.39786 0.15 0.0
-1.39274 0.1 0.0
-1.44957 0.85 0.0
-1.44946 0.8 0.0
-1.4523 0.95 0.0
-1.44968 0.9 0.0
-1.4499 1 0.0
-1.3981 0.25 0.0
-1.38798 0.2 0.0
-1.42141 0.55 0.0
-1.3987 0.5 0.0
-1.39834 0.35 0.0
-1.37845 0.4 0.0
-1.37607 0.45 0.0
-1.40784 0.65 0.0
-1.39894 0.6 0.0
-1.41185 0.75 0.0
-1.39918 0.7 0.0
-1.38322 0.3 0.0
-1.34729 0 0.0
-1.34492 0.05 0.0
-1.34018 0.15 0.0
-1.34255 0.1 0.0
-1.40707 0.85 0.0
-1.39941 0.8 0.0
-1.39977 0.95 0.0
-1.39965 0.9 0.0
-1.39989 1 0.0
-1.33781 0.2 0.0
-1.33544 0.25 0.0
-1.37131 0.55 0.0
-1.34859 0.5 0.0
-1.33833 0.4 0.0
-1.3307 0.35 0.0
-1.32595 0.45 0.0
-1.34885 0.6 0.0
-1.36655 0.65 0.0
-1.36179 0.75 0.0
-1.34911 0.7 0.0
-1.33307 0.3 0.0
-1.29708 0 0.0
-1.29722 0.05 0.0
-1.2975 0.15 0.0
-1.29236 0.1 0.0
-1.35703 0.85 0.0
-1.34937 0.8 0.0
-1.34988 1 0.0
-1.34962 0.9 0.0
-1.35226 0.95 0.0
-1.28528 0.25 0.0
-1.28764 0.2 0.0
-1.28931 0.35 0.0
-1.32121 0.55 0.0
-1.29848 0.5 0.0
-1.28709 0.45 0.0
-1.2982 0.4 0.0
-1.29876 0.6 0.0
-1.31647 0.65 0.0
-1.29918 0.75 0.0
-1.29904 0.7 0.0
-1.28292 0.3 0.0
-1.24687 0 0.0
-1.24702 0.05 0.0
-1.24717 0.1 0.0
-1.24732 0.15 0.0
-1.29946 0.85 0.0
-1.29932 0.8 0.0
-1.29987 1 0.0
-1.29974 0.95 0.0
-1.30462 0.9 0.0
-1.24762 0.25 0.0
-1.23747 0.2 0.0
-1.24792 0.35 0.0
-1.22807 0.4 0.0
-1.27111 0.55 0.0
-1.24837 0.5 0.0
-1.24822 0.45 0.0
-1.24867 0.6 0.0
-1.26639 0.65 0.0
-1.26167 0.75 0.0
-1.24897 0.7 0.0
-1.23277 0.3 0.0
-1.19667 0 0.0
-1.19683 0.05 0.0
-1.18964 0.15 0.0
-1.19198 0.1 0.0
-1.25695 0.85 0.0
-1.24927 0.8 0.0
-1.25223 0.95 0.0
-1.24987 1 0.0
-1.24957 0.9 0.0
-1.1873 0.2 0.0
-1.18496 0.25 0.0
-1.18028 0.35 0.0
-1.17794 0.4 0.0
-1.1981 0.45 0.0
-1.19842 0.55 0.0
-1.19826 0.5 0.0
-1.19858 0.6 0.0
-1.19874 0.65 0.0
-1.19906 0.75 0.0
-1.1989 0.7 0.0
-1.18262 0.3 0.0
-1.14646 0 0.0
-1.14663 0.05 0.0
-1.1418 0.1 0.0
-1.13713 0.2 0.0
-1.14697 0.15 0.0
-1.20691 0.85 0.0
-1.20926 0.8 0.0
-1.20221 0.95 0.0
-1.19986 1 0.0
-1.20456 0.9 0.0
-1.13997 0.3 0.0
-1.14731 0.25 0.0
-1.13781 0.4 0.0
-1.13014 0.35 0.0
-1.12548 0.45 0.0
-1.14815 0.5 0.0
-1.15962 0.55 0.0
-1.14849 0.6 0.0
-1.15745 0.65 0.0
-1.16155 0.75 0.0
-1.14917 0.8 0.0
-1.14883 0.7 0.0
-1.09625 0 0.0
-1.09661 0.1 0.0
-1.09393 0.05 0.0
-1.09697 0.2 0.0
-1.08929 0.15 0.0
-1.15687 0.85 0.0
-1.14985 1 0.0
-1.15219 0.95 0.0
-1.14951 0.9 0.0
-1.09733 0.3 0.0
-1.08465 0.25 0.0
-1.09769 0.4 0.0
-1.08 0.35 0.0
-1.08661 0.45 0.0
-1.09804 0.5 0.0
-1.12082 0.55 0.0
-1.10916 0.8 0.0
-1.10629 0.7 0.0
-1.0984 0.6 0.0
-1.11616 0.65 0.0
-1.11149 0.75 0.0
-1.04604 0 0.0
-1.04623 0.05 0.0
-1.04642 0.1 0.0
-1.0468 0.2 0.0
-1.03911 0.15 0.0
-1.09948 0.9 0.0
-1.0993 0.85 0.0
-1.09984 1 0.0
-1.09966 0.95 0.0
-1.04718 0.3 0.0
-1.03449 0.25 0.0
-1.04756 0.4 0.0
-1.02986 0.35 0.0
-1.04775 0.45 0.0
-1.04794 0.5 0.0
-1.04813 0.55 0.0
-1.05911 0.8 0.0
-1.04831 0.6 0.0
-1.06376 0.7 0.0
-1.0485 0.65 0.0
-1.04888 0.75 0.0
-0.995833 0 0.0
-0.991231 0.1 0.0
-0.996033 0.05 0.0
-0.986629 0.2 0.0
-0.98893 0.15 0.0
-1.05447 0.9 0.0
-1.04926 0.85 0.0
-1.04983 1 0.0
-1.04964 0.95 0.0
-0.984328 0.25 0.0
-0.99703 0.3 0.0
-0.997429 0.4 0.0
-0.997628 0.45 0.0
-0.979726 0.35 0.0
-0.997827 0.5 0.0
-0.998027 0.55 0.0
-0.998226 0.6 0.0
-0.961416 0.475 0.0
-1.00907 0.8 0.0
-0.998426 0.65 0.0
-0.998625 0.7 0.0
-1.01138 0.75 0.0
-0.945625 0 0.0
-0.946044 0.1 0.0
-0.943334 0.05 0.0
-0.946463 0.2 0.0
-0.938752 0.15 0.0
-1.00444 0.9 0.0
-1.00675 0.85 0.0
-0.999821 1 0.0
-1.00213 0.95 0.0
-0.93417 0.25 0.0
-0.946881 0.3 0.0
-0.9473 0.4 0.0
-0.929588 0.35 0.0
-0.925005 0.45 0.0
-0.960371 0.525 0.0
-0.959325 0.575 0.0
-0.958279 0.625 0.0
-0.922714 0.5 0.0
-0.959017 0.8 0.0
-0.957233 0.675 0.0
-0.952999 0.7125 0.0
-0.948766 0.75 0.0
-0.895417 0 0.0
-0.895855 0.1 0.0
-0.893136 0.05 0.0
-0.896294 0.2 0.0
-0.888573 0.15 0.0
-0.949184 0.85 0.0
-0.954415 0.9 0.0
-0.949812 1 0.0
-0.949603 0.95 0.0
-0.884011 0.25 0.0
-0.896733 0.3 0.0
-0.874887 0.45 0.0
-0.879449 0.35 0.0
-0.897171 0.4 0.0
-0.920423 0.55 0.0
-0.918132 0.6 0.0
-0.915841 0.65 0.0
-0.872606 0.5 0.0
-0.908968 0.8 0.0
-0.91355 0.7 0.0
-0.898707 0.75 0.0
-0.845208 0 0.0
-0.845438 0.05 0.0
-0.845667 0.1 0.0
-0.845896 0.15 0.0
-0.833853 0.25 0.0
-0.846126 0.2 0.0
-0.899146 0.85 0.0
-0.904386 0.9 0.0
-0.899584 0.95 0.0
-0.899804 1 0.0
-0.838062 0.35 0.0
[...]
POINT_DATA 10839
VECTORS Velocity float
0.21 0 0.0
0.24 0 0.0
0.2275 0 0.0
0.2475 0 0.0
0.25 0 0.0
0.2475 0 0.0
0 0 0.0
0.0475 0 0.0
0.1275 0 0.0
0.09 0 0.0
0.09 0 0.0
0.1275 0 0.0
0.1875 0 0.0
0.16 0 0.0
0.195525 -0.00192616 0.0
0.242633 -0.00110791 0.0
0.215628 -0.00187985 0.0
0.231204 -0.00180063 0.0
0.248462 -0.000431531 0.0
0.24 0 0.0
0.242651 0.00107004 0.0
0.248255 0.000378046 0.0
0 0 0.0
0.0620818 -0.00167793 0.0
0.03602 -0.00398454 0.0
0.16 0 0.0
0.1875 0 0.0
0.21 0 0.0
0.2275 0 0.0
0.193496 0.00237508 0.0
0.138802 0.0015643 0.0
0 0 0.0
0.0475 0 0.0
0.0998679 0.00259661 0.0
0.0621059 0.00172542 0.0
0.0995383 -0.0023298 0.0
0.138868 -0.00174636 0.0
0.174236 -0.00804838 0.0
0.200952 -0.00808159 0.0
0.234857 -0.00434193 0.0
0.243139 -0.00285947 0.0
0.221361 -0.0128053 0.0
0.248576 -0.00056125 0.0
0.247676 0.00137615 0.0
0.231105 0.00155725 0.0
0.243149 0.00289763 0.0
0 0 0.0
0.054101 -0.00789861 0.0
0.0796626 -0.0193746 0.0
0.0845188 -0.0195056 0.0
0.174246 0.00802548 0.0
0.219688 0.0052343 0.0
0.200999 0.00811724 0.0
0.115076 0.0130447 0.0
0.146114 0.0130481 0.0
0 0 0.0
0.0422691 0.00581716 0.0
0.0731045 0.014353 0.0
0.0935666 0.0251854 0.0
0.110143 -0.0281268 0.0
0.146152 -0.0128428 0.0
0.176032 -0.0224111 0.0
0.202894 -0.0199826 0.0
0.207236 -0.0278369 0.0
0.235269 -0.00963022 0.0
0.244141 -0.00458374 0.0
0.221762 -0.0223392 0.0
0.223551 0.0132315 0.0
0.246697 0.000425111 0.0
0.2434 0.00498678 0.0
0.233842 0.00943171 0.0
0 0 0.0
0.0675449 -0.00562374 0.0
0.106318 -0.032774 0.0
0.108826 -0.0192765 0.0
0.176237 0.0223478 0.0
0.202985 0.0198254 0.0
0.126734 0.0370059 0.0
0.160217 0.0402174 0.0
0.149003 0.0315856 0.0
0 0 0.0
0.0539037 0.00789301 0.0
0.0843676 0.0194246 0.0
0.106374 0.0328174 0.0
0.126773 -0.037275 0.0
0.152122 -0.0394045 0.0
0.123439 -0.0386256 0.0
0.18351 -0.0422056 0.0
0.204632 -0.0354884 0.0
0.233251 -0.0146936 0.0
0.240083 -0.00741023 0.0
0.242337 -5.24087e-05 0.0
0.218594 -0.0268334 0.0
0.22166 0.0221156 0.0
0.240145 0.00715517 0.0
0.233219 0.0146126 0.0
0 0 0.0
0.0845888 -0.0048417 0.0
0.125855 -0.03128 0.0
0.120445 -0.0122119 0.0
0.182402 0.037739 0.0
0.200622 0.0367055 0.0
0.162528 0.0461965 0.0
0.142776 0.044626 0.0
0 0 0.0
0.078292 0.00857059 0.0
0.120983 0.0318606 0.0
0.10857 0.01916 0.0
0.162357 -0.0462288 0.0
0.142796 -0.0448288 0.0
0.139598 -0.0345146 0.0
0.171809 -0.0451289 0.0
0.187178 -0.0421346 0.0
0.200464 -0.0356184 0.0
0.232902 0.00641657 0.0
0.227931 -0.0169718 0.0
0.232949 -0.00659183 0.0
0.213203 -0.0244291 0.0
0.218727 0.0264496 0.0
0.225546 0.0163656 0.0
0 0 0.0
0.0907509 -0.00281298 0.0
0.135364 -0.0216833 0.0
0.133808 -0.00949038 0.0
0.181751 0.0437528 0.0
0.19795 0.0372952 0.0
0.167773 0.0409015 0.0
0.150224 0.0413212 0.0
0.135216 0.0357198 0.0
0 0 0.0
0.084326 0.00478883 0.0
0.124553 0.0153429 0.0
0.153786 -0.0395936 0.0
0.149127 -0.0278404 0.0
0.173931 -0.0396292 0.0
0.188493 -0.0352271 0.0
0.222202 0.00857917 0.0
0.196767 -0.0298372 0.0
0.223094 -0.00360375 0.0
0.220202 -0.0141227 0.0
0.207226 -0.0184058 0.0
0.21316 0.024285 0.0
0 0 0.0
0.100829 -0.00212055 0.0
0.148699 -0.0163372 0.0
0.146017 -0.0071768 0.0
0.185406 0.0368708 0.0
0.195074 0.0314728 0.0
0.175085 0.0314784 0.0
0.165463 0.0319629 0.0
0.155207 0.0295993 0.0
0.145729 0.0292162 0.0
0.138027 0.0213153 0.0
0 0 0.0
0.0974881 0.00370119 0.0
0.13604 0.00969027 0.0
0.156674 -0.0214212 0.0
0.165676 -0.0319694 0.0
0.179651 -0.0320383 0.0
0.188918 -0.0276987 0.0
0.207274 0.0181815 0.0
0.213015 -0.000101459 0.0
0.211576 0.00930626 0.0
0.193284 -0.0226321 0.0
0.201419 -0.012139 0.0
0.209042 -0.00735312 0.0
0.199085 0.0222382 0.0
0 0 0.0
0.110702 -0.00158837 0.0
0.16058 -0.0145597 0.0
0.15294 -0.00526299 0.0
0.18349 0.0288402 0.0
0.19042 0.0224749 0.0
0.178252 0.024186 0.0
0.171032 0.0252944 0.0
0.161535 0.0228375 0.0
0.154058 0.0192917 0.0
0.146164 0.0167442 0.0
0 0 0.0
0.103414 0.00220435 0.0
0.1436 0.00712234 0.0
0.165039 -0.0202857 0.0
0.171333 -0.0249011 0.0
0.183133 -0.0243579 0.0
0.201402 0.0119043 0.0
0.204061 0.00398219 0.0
0.190292 -0.0162193 0.0
0.195387 -0.0102105 0.0
0.196504 0.000206528 0.0
0.20143 -0.00490196 0.0
0.193384 0.0159861 0.0
0.181829 -0.0164172 0.0
0 0 0.0
0.115963 -0.00114876 0.0
0.16677 -0.0135318 0.0
0.163833 -0.00710529 0.0
0.154883 -0.0033088 0.0
0.183655 0.0209073 0.0
0.174724 0.0194232 0.0
0.169249 0.0188212 0.0
0.160511 0.014552 0.0
0.154529 0.0106108 0.0
0 0 0.0
0.107959 0.0015425 0.0
0.148862 0.00441306 0.0
0.170434 -0.0166026 0.0
0.174984 -0.0187985 0.0
0.17116 -0.0119084 0.0
0.196216 0.00683836 0.0
0.191846 0.00341215 0.0
0.186672 -0.0126226 0.0
0.189458 -0.00953914 0.0
0.191829 -0.00377417 0.0
0.191433 0.0107897 0.0
0.186276 0.0129101 0.0
0.178051 -0.0142758 0.0
0.181953 -0.0118589 0.0
0 0 0.0
0.112535 -0.000678724 0.0
0.168968 -0.00775098 0.0
0.158314 -0.00266451 0.0
0.167254 -0.00501003 0.0
0.17992 0.014256 0.0
0.175929 0.0147542 0.0
0.171761 0.0140454 0.0
0.166459 0.0134547 0.0
0.160682 0.0078974 0.0
0 0 0.0
0.107651 0.000933507 0.0
0.15467 0.00322345 0.0
0.175225 -0.0116929 0.0
0.172786 -0.00909433 0.0
0.188943 0.00586775 0.0
0.18832 0.00111235 0.0
0.185204 -0.00832828 0.0
0.187288 -0.00546806 0.0
0.188356 -0.00211555 0.0
0.185981 0.00741665 0.0
0.181213 0.0100375 0.0
0.17841 -0.0102023 0.0
0.181675 -0.00873353 0.0
0 0 0.0
0.139157 -0.00101798 0.0
0.171447 -0.00570283 0.0
0.167875 -0.00325411 0.0
0.178338 0.0108065 0.0
0.174459 0.0106762 0.0
0.170703 0.00935448 0.0
0.166239 0.00847418 0.0
0.16251 0.00333108 0.0
0 0 0.0
0.112398 0.000670506 0.0
0.176452 -0.00825485 0.0
0.174034 -0.00694848 0.0
0.186112 0.00346122 0.0
0.185501 -0.000235985 0.0
0.183764 -0.00533587 0.0
0.183972 -0.00258376 0.0
0.183667 0.00489846 0.0
0.181568 0.00675892 0.0
0.178959 0.00784242 0.0
0.181251 -0.00638856 0.0
0.179038 -0.00740274 0.0
0 0 0.0
0.14114 -0.000600237 0.0
0.173222 -0.00405416 0.0
0.170076 -0.00240969 0.0
0.176136 0.00798385 0.0
0.173436 0.00720056 0.0
0.138646 0.000938323 0.0
0.170962 0.00556131 0.0
0.167051 0.003288 0.0
0 0 0.0
0.176754 -0.00591546 0.0
0.17508 -0.00498466 0.0
0.183686 0.00200416 0.0
0.183172 -0.000271687 0.0
0.181946 -0.00390437 0.0
0.1821 -0.00194351 0.0
0.180284 0.00471897 0.0
0.18181 0.00339834 0.0
0.176415 0.00558932 0.0
0.178422 0.00548855 0.0
0.180338 -0.00489323 0.0
0.178602 -0.00534583 0.0
0 0 0.0
0.142748 -0.000577153 0.0
0.174488 -0.00290978 0.0
0.171733 -0.0017584 0.0
0.172799 0.00385359 0.0
0.17447 0.00505686 0.0
0.140552 0.000548758 0.0
0.169498 0.00229114 0.0
0 0 0.0
0.177031 -0.0042816 0.0
0.17584 -0.00360625 0.0
0.18187 0.00131334 0.0
0.181483 -0.000314227 0.0
0.179643 -0.00378313 0.0
0.180248 -0.00257652 0.0
0.180751 -0.00151502 0.0
0.179535 0.0034617 0.0
0.180478 0.0023016 0.0
0.17658 0.00425548 0.0
0.178054 0.00380696 0.0
0.17832 -0.00389939 0.0
0 0 0.0
0.143386 -0.000577449 0.0
0.175492 -0.00202212 0.0
0.172632 -0.00127262 0.0
0.173807 0.00281804 0.0
0.175231 0.00352954 0.0
0.141745 0.000503691 0.0
0.171043 0.00162573 0.0
0 0 0.0
0.176404 -0.00262687 0.0
0.177263 -0.00290109 0.0
0.180537 0.000802527 0.0
0.180296 -0.000369733 0.0
0.179604 -0.00208029 0.0
0.178891 -0.002549 0.0
0.179792 -0.00122661 0.0
0.179545 0.0014995 0.0
0.178947 0.00251972 0.0
0.176697 0.00293199 0.0
0.177766 0.00258559 0.0
0.178134 -0.00288793 0.0
0 0 0.0
0.143514 -0.000200961 0.0
0.176081 -0.00155078 0.0
0.173437 -0.000845573 0.0
0.174673 0.00195892 0.0
0.175726 0.00242768 0.0
0 0 0.0
0.172338 0.0011479 0.0
0.142797 0.000410842 0.0
0.177426 -0.00218097 0.0
0.176817 -0.00194824 0.0
0.178592 -0.00205444 0.0
0.179601 0.000420884 0.0
0.179453 -0.000428861 0.0
0.179257 -0.0010831 0.0
0.179122 -0.00171542 0.0
0.178857 0.000905107 0.0
0.178414 0.00165218 0.0
0.176794 0.00177394 0.0
0.177553 0.00170738 0.0
0.178018 -0.00218832 0.0
0 0 0.0
0.144246 -2.16267e-05 0.0
0.174058 -0.000619775 0.0
0.176554 -0.00118858 0.0
0.175312 0.00125164 0.0
0.176065 0.00162437 0.0
0 0 0.0
0.143114 0.000220579 0.0
0.172455 0.000814756 0.0
0.17754 -0.00179194 0.0
0.177177 -0.00149975 0.0
0.178365 -0.00169575 0.0
0.17853 -0.00131878 0.0
0.178922 0.000116375 0.0
0.178845 -0.000502608 0.0
0.178841 -0.000989557 0.0
0.178368 0.000459689 0.0
0.178031 0.00101251 0.0
0.17682 0.00127509 0.0
0.177384 0.0010556 0.0
0.177963 -0.00172363 0.0
0 0 0.0
0.144707 -0.000202692 0.0
0.177105 -0.000925956 0.0
0.174758 -0.000567522 0.0
0.175654 0.00086091 0.0
0.176283 0.00104479 0.0
0.143082 0.00013059 0.0
0 0 0.0
0.172757 0.000486739 0.0
0.177415 -0.00121167 0.0
0.177685 -0.0013632 0.0
0.178147 -0.00134398 0.0
0.178283 -0.00117594 0.0
0.178454 -0.000932006 0.0
0.178265 -0.000225057 0.0
0.178421 -0.000588604 0.0
0.178003 0.000107343 0.0
0.177647 0.000384324 0.0
0.176816 0.000644408 0.0
0.177242 0.000570232 0.0
0.177939 -0.00142044 0.0
0 0 0.0
0.145384 -0.00029468 0.0
0.174802 -0.000565192 0.0
0.177636 -0.00102024 0.0
0.177288 -0.000806066 0.0
0.175907 0.000530452 0.0
0.176389 0.000692387 0.0
0.143623 6.19485e-05 0.0
0 0 0.0
0.173329 0.000294484 0.0
0.177945 -0.00125876 0.0
0.177786 -0.00121185 0.0
0.178136 -0.00111865 0.0
0.178057 -0.00121803 0.0
0.178086 -0.000948519 0.0
0.178113 -0.00069166 0.0
0.178022 -0.000383278 0.0
0.177732 -0.000180927 0.0
0.177477 9.42588e-05 0.0
0.176795 0.000362316 0.0
0.176467 0.000289744 0.0
0.177115 0.000190351 0.0
0 0 0.0
0.175439 -0.00044826 0.0
0.145718 -0.00032352 0.0
0.177804 -0.00092422 0.0
0.17753 -0.000697207 0.0
0.176026 0.000266352 0.0
0 0 0.0
0.143863 1.66749e-05 0.0
0.173528 0.000132372 0.0
0.177978 -0.00116742 0.0
0.177928 -0.00107092 0.0
0.178038 -0.00111023 0.0
0.178018 -0.00117381 0.0
0.177965 -0.00100152 0.0
0.177895 -0.000813284 0.0
0.17783 -0.000533748 0.0
0.176469 8.00229e-05 0.0
0.177015 -7.19985e-05 0.0
0.177522 -0.000430185 0.0
0.177326 -0.00015294 0.0
0.176741 5.45359e-05 0.0
0 0 0.0
0.144806 2.03439e-05 0.0
0.175079 -0.000330862 0.0
0.178011 -0.000862572 0.0
0.177883 -0.000654057 0.0
0.173903 4.07701e-05 0.0
0.176038 3.34507e-05 0.0
0 0 0.0
0.144514 2.5138e-05 0.0
0.178032 -0.00113787 0.0
0.178064 -0.00104527 0.0
0.177962 -0.00115147 0.0
0.178019 -0.00119868 0.0
0.17787 -0.00107899 0.0
0.177736 -0.000958073 0.0
0.177559 -0.000807163 0.0
0.176423 -0.000138765 0.0
0.177352 -0.000658852 0.0
0.176914 -0.000298742 0.0
0.177121 -0.00050283 0.0
0.17664 -0.00026191 0.0
0 0 0.0
0.175688 -0.000366816 0.0
0.146155 2.06727e-06 0.0
0.178243 -0.000873566 0.0
0.178139 -0.00066608 0.0
0.173462 -8.48221e-05 0.0
0.176068 -0.000130898 0.0
0 0 0.0
0.143398 4.87579e-05 0.0
0.178213 -0.00108022 0.0
0.178117 -0.00117465 0.0
0.177929 -0.00125176 0.0
0.177791 -0.00120961 0.0
0.178049 -0.00128356 0.0
0.177621 -0.00112429 0.0
0.177428 -0.00101057 0.0
0.177209 -0.000879666 0.0
0.177656 -0.00130575 0.0
0.176361 -0.000342166 0.0
0.17698 -0.000739129 0.0
0.176752 -0.000604238 0.0
0.176561 -0.00042289 0.0
0 0 0.0
0.176393 -0.000420219 0.0
0.146312 -0.000359962 0.0
0.178409 -0.00093663 0.0
0.178295 -0.000717366 0.0
0.173546 -0.000257989 0.0
0.176029 -0.000231088 0.0
0 0 0.0
0.143666 -0.000242019 0.0
0.178378 -0.00116255 0.0
0.178221 -0.00127214 0.0
0.177919 -0.00139543 0.0
0.178109 -0.00142712 0.0
0.177724 -0.00147969 0.0
0.177446 -0.00122633 0.0
0.177219 -0.00112108 0.0
0.176986 -0.000995353 0.0
0.177498 -0.00143854 0.0
0.176236 -0.000500676 0.0
0.17675 -0.00086023 0.0
0.176573 -0.000770262 0.0
0.176404 -0.000681239 0.0
0 0 0.0
0.176184 -0.000458232 0.0
0.146337 -0.000138575 0.0
0.178652 -0.00102815 0.0
0.178621 -0.000787173 0.0
0.17589 -0.000400792 0.0
0.173457 -0.000245497 0.0
0 0 0.0
0.143873 -0.000113342 0.0
0.17857 -0.0013073 0.0
0.178352 -0.00142383 0.0
0.177699 -0.00171622 0.0
0.17819 -0.00162248 0.0
0.177947 -0.00159694 0.0
0.177253 -0.00136231 0.0
0.177 -0.00125541 0.0
0.176746 -0.0011276 0.0
0.177428 -0.00169279 0.0
0.176083 -0.000655445 0.0
0.176504 -0.00098023 0.0
0.176237 -0.000883493 0.0
0 0 0.0
0.145705 -0.000124981 0.0
0.176343 -0.000506111 0.0
0.178977 -0.000886288 0.0
0.178792 -0.00149981 0.0
0.178908 -0.00117366 0.0
0.175679 -0.000518672 0.0
0.173225 -0.000237132 0.0
0.143516 0.000101126 0.0
0 0 0.0
0.178277 -0.00182718 0.0
0.178511 -0.00163428 0.0
0.177694 -0.0019382 0.0
0.177985 -0.00185488 0.0
0.176591 -0.00137836 0.0
0.177147 -0.0016237 0.0
0.176863 -0.00151678 0.0
0.177372 -0.00199162 0.0
0.176049 -0.001084 0.0
0.175852 -0.000865622 0.0
0.176276 -0.00128408 0.0
0 0 0.0
0.146865 -0.000134331 0.0
0.177149 -0.000622842 0.0
0.179286 -0.00104942 0.0
0.178975 -0.00168292 0.0
0.179277 -0.00143442 0.0
0.175567 -0.000646425 0.0
0.172593 -0.000394681 0.0
0.142827 -0.000214961 0.0
0 0 0.0
0.17533 -0.000768352 0.0
0.178375 -0.00206281 0.0
0.178752 -0.00200739 0.0
0.178066 -0.00231489 0.0
0.177694 -0.00219012 0.0
0.176351 -0.00175132 0.0
0.17672 -0.00180525 0.0
0.177041 -0.00192617 0.0
0.177306 -0.00234264 0.0
0.175824 -0.0012998 0.0
0.175601 -0.00104286 0.0
0.176064 -0.00154348 0.0
0 0 0.0
0.147283 -0.000339705 0.0
0.177669 -0.000826746 0.0
0.179648 -0.00125373 0.0
0.179263 -0.00197385 0.0
0.179636 -0.00171497 0.0
0.142505 -0.000264077 0.0
0.172863 -0.000572503 0.0
0 0 0.0
0.175029 -0.000861828 0.0
0.178521 -0.00243091 0.0
0.178982 -0.00237072 0.0
0.178142 -0.00272445 0.0
0.17769 -0.00257905 0.0
0.176171 -0.0020149 0.0
0.176564 -0.00213004 0.0
0.177241 -0.002756 0.0
0.176873 -0.00244277 0.0
0.17562 -0.00147158 0.0
0.17532 -0.00123242 0.0
0.175819 -0.00182298 0.0
0 0 0.0
0.148201 -0.000476826 0.0
0.177975 -0.00105514 0.0
0.180121 -0.00152526 0.0
0.179672 -0.00243245 0.0
0.179242 -0.00282004 0.0
0.180047 -0.00204645 0.0
0.142514 -0.000301097 0.0
0.172537 -0.000627126 0.0
0 0 0.0
0.174687 -0.0010159 0.0
0.178742 -0.00303338 0.0
0.178208 -0.00311579 0.0
0.177691 -0.00304083 0.0
0.177174 -0.00311597 0.0
0.175977 -0.00229778 0.0
0.176365 -0.00251328 0.0
0.176726 -0.00286911 0.0
0.174972 -0.00143206 0.0
0.17531 -0.00172625 0.0
0.175527 -0.00213767 0.0
0 0 0.0
0.148568 -0.000615652 0.0
0.178581 -0.00118528 0.0
0.180736 -0.00181269 0.0
0.179981 -0.00278773 0.0
0.179536 -0.0033443 0.0
0.180542 -0.00244363 0.0
0.142219 -0.000201123 0.0
0.172261 -0.000621071 0.0
0 0 0.0
0.174637 -0.00161088 0.0
0.171588 -0.000646031 0.0
0.174128 -0.0011938 0.0
0.178937 -0.00362899 0.0
0.17827 -0.00354511 0.0
0.177671 -0.00385882 0.0
0.177107 -0.00351297 0.0
0.1766 -0.00325028 0.0
0.175703 -0.00267959 0.0
0.176056 -0.00313395 0.0
0.174845 -0.00208577 0.0
0.17524 -0.00244456 0.0
0.179123 -0.00417864 0.0
0 0 0.0
0.149383 -0.000403796 0.0
0.18147 -0.00217701 0.0
0.179317 -0.00136966 0.0
0.179888 -0.00401657 0.0
0.180547 -0.0034926 0.0
0.181133 -0.00294376 0.0
0.142187 -0.000163284 0.0
0 0 0.0
0.174511 -0.00233798 0.0
0.174179 -0.00187893 0.0
0.17372 -0.00140236 0.0
0.140988 -0.000161887 0.0
0.171152 -0.000854795 0.0
0.178368 -0.00420794 0.0
0.177645 -0.00438801 0.0
0.176974 -0.00412687 0.0
0.176861 -0.00466401 0.0
0.176439 -0.00367107 0.0
0.175363 -0.00312791 0.0
0.175748 -0.00366052 0.0
0.174905 -0.00276751 0.0
0.179285 -0.00481997 0.0
0.149785 -0.000563666 0.0
0 0 0.0
0.182164 -0.00256745 0.0
0.180317 -0.00164028 0.0
0.18027 -0.00482707 0.0
0.180964 -0.0040413 0.0
0.181844 -0.00358984 0.0
0 0 0.0
0.174019 -0.00268738 0.0
0.173515 -0.00222829 0.0
0.17318 -0.00159113 0.0
0.140848 -0.000511386 0.0
0.170496 -0.00104387 0.0
0.178465 -0.00535036 0.0
0.177611 -0.00497593 0.0
0.176705 -0.00524938 0.0
0.176087 -0.00458038 0.0
0.174976 -0.00362286 0.0
0.175412 -0.00425665 0.0
0.174308 -0.00334733 0.0
0.179539 -0.0057692 0.0
0 0 0.0
0.151494 -0.00071602 0.0
0.183135 -0.00320198 0.0
0.181788 -0.00207827 0.0
0.182653 -0.00440555 0.0
0.180698 -0.00583303 0.0
0.181737 -0.00513026 0.0
0 0 0.0
0 0 0.0
0.173434 -0.00309352 0.0
0.1729 -0.00254224 0.0
0.172569 -0.00182612 0.0
0.16992 -0.00115354 0.0
0.14021 -0.00044586 0.0
0.17851 -0.00635501 0.0
0.177507 -0.00587394 0.0
0.175075 -0.00478865 0.0
0.176455 -0.00614028 0.0
0.175736 -0.00534735 0.0
0.174499 -0.00419223 0.0
0.173738 -0.00384526 0.0
0.178509 -0.00729884 0.0
0.179729 -0.00691704 0.0
0.152996 -0.0011224 0.0
0.182709 -0.00268563 0.0
0.184212 -0.00402085 0.0
0.183418 -0.00520494 0.0
0.18116 -0.00704013 0.0
0.182262 -0.00602118 0.0
0 0 0.0
0 0 0.0
0.17231 -0.00280389 0.0
0.172581 -0.00363712 0.0
0.169511 -0.00123029 0.0
0.171628 -0.00207669 0.0
0.139805 -0.000389836 0.0
0.177279 -0.00739904 0.0
0.176096 -0.00717664 0.0
0.173091 -0.00439626 0.0
0.174684 -0.00536685 0.0
0.175423 -0.00601585 0.0
0.173727 -0.0050612 0.0
0.178475 -0.00833019 0.0
0.180019 -0.00884534 0.0
0.181619 -0.00854953 0.0
0.154216 -0.00155924 0.0
0.184058 -0.00340934 0.0
0.185938 -0.00528628 0.0
0.184535 -0.00640174 0.0
0.183217 -0.00779291 0.0
0 0 0.0
0 0 0.0
0.171324 -0.00324829 0.0
0.171763 -0.00413081 0.0
0.168145 -0.00136262 0.0
0.17081 -0.00233912 0.0
0.138604 -0.000506741 0.0
0.175042 -0.00674791 0.0
0.175634 -0.00832893 0.0
0.176947 -0.00872097 0.0
0.172326 -0.00499681 0.0
0.174103 -0.00617879 0.0
0.173014 -0.00580714 0.0
0.17084 -0.0046627 0.0
0.178214 -0.0105351 0.0
0 0 0.0
0.180037 -0.0106741 0.0
0.184046 -0.00961782 0.0
0.182028 -0.0103529 0.0
0.156907 -0.00172138 0.0
0.187398 -0.0064828 0.0
0.18664 -0.00446962 0.0
0.186016 -0.00844948 0.0
0 0 0.0
0 0 0.0
0 0 0.0
0 0 0.0
0 0 0.0
0.137529 -0.000550999 0.0
0.169918 -0.00261404 0.0
0.170341 -0.00365567 0.0
0.167074 -0.00153258 0.0
0.174434 -0.00777245 0.0
0.175002 -0.00964341 0.0
0.176519 -0.0102139 0.0
0.172331 -0.00644086 0.0
0.171427 -0.0056505 0.0
0.17307 -0.00745772 0.0
0.170566 -0.0062393 0.0
0.170039 -0.00507151 0.0
0.177771 -0.012452 0.0
0.179951 -0.0127265 0.0
0 0 0.0
0.000108321 -0.000128232 0.0
0 0 0.0
0.000528854 -0.00663448 0.0
0.182365 -0.0126277 0.0
0.184744 -0.0113013 0.0
0.160108 -0.00233845 0.0
0.189454 -0.0082735 0.0
0.189467 -0.00599189 0.0
0.187573 -0.0108192 0.0
0 0 0.0
0 0 0.0
0 0 0.0
0.000450998 -0.00486849 0.0
0.000416762 -0.000984262 0.0
0.00114169 -0.00125842 0.0
0 0 0.0
0.136945 -0.000612171 0.0
0.168934 -0.00285882 0.0
0.169264 -0.00407333 0.0
0.166122 -0.00174519 0.0
0.173683 -0.00892525 0.0
0.174183 -0.011101 0.0
0.175866 -0.01189 0.0
0.17154 -0.00713208 0.0
0.172338 -0.00828307 0.0
0.16959 -0.0068445 0.0
0.168564 -0.00578762 0.0
0.177115 -0.0145879 0.0
0.178994 -0.0148993 0.0
0.181046 -0.0149295 0.0
0 0 0.0
0.00119845 -0.000566075 0.0
0 0 0.0
0 0 0.0
0.00192643 -0.0143756 0.0
0.00220421 -0.0117927 0.0
0.183175 -0.0148376 0.0
0.185522 -0.0141417 0.0
0.192951 -0.008003 0.0
0.164219 -0.00335278 0.0
0.191907 -0.0108763 0.0
0.189075 -0.0139317 0.0
0 0 0.0
0.00165173 -0.00515817 0.0
0.00196435 -0.00837989 0.0
0.00211293 -0.00357968 0.0
0.00364603 -0.00270075 0.0
0 0 0.0
0.135851 -0.000673402 0.0
0.167698 -0.00316333 0.0
0.168049 -0.00449971 0.0
0.164845 -0.00193153 0.0
0.172735 -0.0101737 0.0
0.173131 -0.0126717 0.0
0.174951 -0.013751 0.0
0.170038 -0.00833908 0.0
0.171491 -0.00913097 0.0
0.168277 -0.00758993 0.0
0.166692 -0.00494117 0.0
0.167198 -0.00638285 0.0
0.176305 -0.016477 0.0
0.179135 -0.0170581 0.0
0.182321 -0.0176728 0.0
0 0 0.0
0.00390353 -0.00102862 0.0
0 0 0.0
0 0 0.0
0 0 0.0
0 0 0.0
0.00500416 -0.0132548 0.0
0.000365813 -0.00924975 0.0
0.00184836 -0.0166361 0.0
0.0047554 -0.0220162 0.0
0.00440338 -0.0175347 0.0
0 0 0.0
-0.000296401 -0.0107405 0.0
0.186033 -0.0187692 0.0
0.190175 -0.0170825 0.0
0 0 0.0
0.170374 -0.00524431 0.0
0.19683 -0.0108109 0.0
0.195099 -0.0156274 0.0
0 0 0.0
0 0 0.0
0.0043772 -0.00896035 0.0
0.00545388 -0.00614148 0.0
0.00748743 -0.00371243 0.0
0 0 0.0
0.134869 -0.00073701 0.0
0.166195 -0.00352818 0.0
0.163874 -0.00210907 0.0
0.165491 -0.0052785 0.0
0.171574 -0.0115071 0.0
0.172143 -0.0139198 0.0
0.173725 -0.0157882 0.0
0.168921 -0.00909977 0.0
0.170251 -0.0102384 0.0
0.166817 -0.00833379 0.0
0.166067 -0.00681515 0.0
0.180107 -0.0195215 0.0
0.175213 -0.0184994 0.0
0.177612 -0.0212088 0.0
0.181354 -0.0225295 0.0
0.185888 -0.0236897 0.0
0 0 0.0
0.00632113 -0.0011216 0.0
-6.81732e-05 -0.0117017 0.0
0.00117208 -0.0241953 0.0
0.000320599 -0.0107861 0.0
0.00768366 -0.0172839 0.0
0.011364 -0.014889 0.0
0.00198372 -0.0213035 0.0
0.00500328 -0.0267122 0.0
0.00833544 -0.0253324 0.0
-0.000868303 -0.0102405 0.0
-0.000586139 -0.0274778 0.0
0.191637 -0.0230967 0.0
-0.00153114 -0.0077755 0.0