# vtk DataFile Version 3.0
Mesh NS-CD Problem
ASCII
DATASET UNSTRUCTURED_GRID
POINTS 10839 float
-2 0.3 0.0
-2 0.4 0.0
-2 0.35 0.0
-2 0.45 0.0
-2 0.5 0.0
-2 0.55 0.0
-2 0 0.0
-2 0.05 0.0
-2 0.85 0.0
-2 0.9 0.0
-2 0.1 0.0
-2 0.15 0.0
-2 0.25 0.0
-2 0.2 0.0
-1.96653 0.266667 0.0
-1.96524 0.415385 0.0
-1.96485 0.315 0.0
-1.96348 0.363636 0.0
-1.96414 0.464286 0.0
-2 0.6 0.0
-1.96538 0.584615 0.0
-1.96538 0.538462 0.0
-1.94979 0 0.0
-1.96653 0.0666666 0.0
-1.93306 0.0333333 0.0
-2 0.8 0.0
-2 0.75 0.0
-2 0.7 0.0
-2 0.65 0.0
-1.96249 0.7375 0.0
-1.96666 0.833333 0.0
-2 1 0.0
-2 0.95 0.0
-1.96249 0.8875 0.0
-1.96666 0.933333 0.0
-1.96234 0.1125 0.0
-1.96653 0.166667 0.0
-1.93724 0.225 0.0
-1.92971 0.28 0.0
-1.93048 0.380769 0.0
-1.93048 0.423077 0.0
-1.89958 0.3375 0.0
-1.9292 0.484203 0.0
-1.92117 0.530907 0.0
-1.96363 0.636364 0.0
-1.93076 0.576923 0.0
-1.89958 0 0.0
-1.88703 0.0375 0.0
-1.90963 0.08 0.0
-1.86611 0.0666666 0.0
-1.93749 0.775 0.0
-1.93635 0.672727 0.0
-1.92999 0.72 0.0
-1.93332 0.866667 0.0
-1.92856 0.821429 0.0
-1.94999 1 0.0
-1.92499 0.9625 0.0
-1.92499 0.925 0.0
-1.89998 0.9 0.0
-1.89958 0.125 0.0
-1.92827 0.178571 0.0
-1.89958 0.233333 0.0
-1.89045 0.290909 0.0
-1.86096 0.311538 0.0
-1.89241 0.392857 0.0
-1.89334 0.448489 0.0
-1.85655 0.357143 0.0
-1.89614 0.653846 0.0
-1.89427 0.504121 0.0
-1.8952 0.559753 0.0
-1.89614 0.615385 0.0
-1.84937 0 0.0
-1.83264 0.0333333 0.0
-1.85655 0.107143 0.0
-1.81172 0.075 0.0
-1.89998 0.766667 0.0
-1.89089 0.709091 0.0
-1.87498 0.85 0.0
-1.85998 0.79 0.0
-1.88748 0.8125 0.0
-1.89998 1 0.0
-1.88748 0.9625 0.0
-1.86664 0.933333 0.0
-1.85712 0.892857 0.0
-1.87448 0.15 0.0
-1.86611 0.194444 0.0
-1.83264 0.133333 0.0
-1.83264 0.2625 0.0
-1.82068 0.321429 0.0
-1.85664 0.404762 0.0
-1.85674 0.452381 0.0
-1.85683 0.5 0.0
-1.81184 0.375 0.0
-1.85712 0.642857 0.0
-1.85693 0.547619 0.0
-1.85702 0.595238 0.0
-1.79917 0 0.0
-1.78482 0.0357143 0.0
-1.79917 0.116667 0.0
-1.76569 0.0666666 0.0
-1.85452 0.745455 0.0
-1.82689 0.692308 0.0
-1.81815 0.781818 0.0
-1.82497 0.825 0.0
-1.84997 1 0.0
-1.8333 0.958333 0.0
-1.81247 0.8875 0.0
-1.81247 0.925 0.0
-1.81742 0.218182 0.0
-1.82427 0.175 0.0
-1.77634 0.145455 0.0
-1.79144 0.242308 0.0
-1.78482 0.285714 0.0
-1.77469 0.332653 0.0
-1.81215 0.529762 0.0
-1.81194 0.422619 0.0
-1.81203 0.470238 0.0
-1.76714 0.392857 0.0
-1.81234 0.625 0.0
-1.79732 0.571429 0.0
-1.74896 0 0.0
-1.73222 0.0333333 0.0
-1.75398 0.105 0.0
-1.71883 0.07 0.0
-1.79227 0.730769 0.0
-1.78007 0.679121 0.0
-1.75765 0.769231 0.0
-1.78178 0.818182 0.0
-1.78996 0.86 0.0
-1.79996 1 0.0
-1.78568 0.964286 0.0
-1.76663 0.922222 0.0
-1.76569 0.1875 0.0
-1.73222 0.15 0.0
-1.74896 0.25 0.0
-1.73714 0.304762 0.0
-1.76743 0.537202 0.0
-1.72869 0.343878 0.0
-1.76732 0.485119 0.0
-1.76723 0.440476 0.0
-1.72243 0.410714 0.0
-1.76757 0.607143 0.0
-1.69875 0 0.0
-1.68369 0.035 0.0
-1.69875 0.1125 0.0
-1.66528 0.075 0.0
-1.74341 0.708974 0.0
-1.73324 0.665934 0.0
-1.70441 0.74478 0.0
-1.71423 0.785714 0.0
-1.72303 0.826923 0.0
-1.74541 0.854545 0.0
-1.74541 0.890909 0.0
-1.74996 1 0.0
-1.73745 0.9625 0.0
-1.71359 0.927273 0.0
-1.68716 0.153846 0.0
-1.7131 0.214286 0.0
-1.70725 0.275 0.0
-1.69712 0.321939 0.0
-1.72279 0.589286 0.0
-1.72261 0.5 0.0
-1.7227 0.544643 0.0
-1.6827 0.355102 0.0
-1.67773 0.428571 0.0
-1.70763 0.464286 0.0
-1.70369 0.62449 0.0
-1.64854 0 0.0
-1.63181 0.0375 0.0
-1.64137 0.142857 0.0
-1.61764 0.0769231 0.0
-1.69458 0.703846 0.0
-1.67471 0.657437 0.0
-1.66143 0.727637 0.0
-1.67125 0.768571 0.0
-1.67851 0.821429 0.0
-1.68841 0.861538 0.0
-1.70904 0.890909 0.0
-1.69995 1 0.0
-1.68176 0.963636 0.0
-1.67267 0.927273 0.0
-1.65427 0.187143 0.0
-1.66718 0.231429 0.0
-1.66554 0.3 0.0
-1.67802 0.571429 0.0
-1.67792 0.523809 0.0
-1.6367 0.366327 0.0
-1.63682 0.423469 0.0
-1.62568 0.502976 0.0
-1.6629 0.470238 0.0
-1.65254 0.618367 0.0
-1.6059 0.307143 0.0
-1.59833 0 0.0
-1.58288 0.0384615 0.0
-1.60563 0.169643 0.0
-1.58179 0.112271 0.0
-1.56964 0.0714286 0.0
-1.64574 0.690385 0.0
-1.62827 0.751429 0.0
-1.63371 0.791071 0.0
-1.64279 0.857143 0.0
-1.65378 0.896154 0.0
-1.64994 1 0.0
-1.6363 0.963636 0.0
-1.61916 0.930769 0.0
-1.61345 0.209107 0.0
-1.62126 0.248571 0.0
-1.56989 0.196429 0.0
-1.63324 0.553571 0.0
-1.58846 0.535714 0.0
-1.59408 0.361905 0.0
-1.59161 0.402211 0.0
-1.58832 0.464286 0.0
-1.61504 0.598581 0.0
-1.59683 0.64359 0.0
-1.57899 0.274107 0.0
-1.56176 0.322381 0.0
-1.54812 0 0.0
-1.53378 0.0357143 0.0
-1.54593 0.147619 0.0
-1.53385 0.0732143 0.0
-1.53393 0.110714 0.0
-1.58522 0.704286 0.0
-1.58709 0.745 0.0
-1.58896 0.785714 0.0
-1.60695 0.830357 0.0
-1.60707 0.892857 0.0
-1.59993 1 0.0
-1.58454 0.965385 0.0
-1.57135 0.928571 0.0
-1.55209 0.241071 0.0
-1.5291 0.198214 0.0
-1.56936 0.570918 0.0
-1.54369 0.517857 0.0
-1.5464 0.380952 0.0
-1.54564 0.427721 0.0
-1.54488 0.47449 0.0
-1.55026 0.606122 0.0
-1.54222 0.677143 0.0
-1.52943 0.282857 0.0
-1.52143 0.33619 0.0
-1.49792 0 0.0
-1.49802 0.05 0.0
-1.49822 0.15 0.0
-1.49312 0.1 0.0
-1.5423 0.717143 0.0
-1.54419 0.767857 0.0
-1.54727 0.819048 0.0
-1.57122 0.861905 0.0
-1.53553 0.914286 0.0
-1.54992 1 0.0
-1.53563 0.964286 0.0
-1.49842 0.25 0.0
-1.48831 0.2 0.0
-1.5214 0.558929 0.0
-1.49891 0.5 0.0
-1.49871 0.4 0.0
-1.47631 0.45 0.0
-1.49911 0.6 0.0
-1.49921 0.65 0.0
-1.49931 0.7 0.0
-1.48111 0.35 0.0
-1.48351 0.3 0.0
-1.44771 0 0.0
-1.44782 0.05 0.0
-1.44804 0.15 0.0
-1.44793 0.1 0.0
-1.49941 0.75 0.0
-1.49951 0.8 0.0
-1.49981 0.95 0.0
-1.49961 0.85 0.0
-1.49971 0.9 0.0
-1.49991 1 0.0
-1.44826 0.25 0.0
-1.43815 0.2 0.0
-1.47151 0.55 0.0
-1.44881 0.5 0.0
-1.44859 0.4 0.0
-1.42619 0.45 0.0
-1.44913 0.65 0.0
-1.44902 0.6 0.0
-1.44935 0.75 0.0
-1.44924 0.7 0.0
-1.43972 0.35 0.0
-1.43336 0.3 0.0
-1.3975 0 0.0
-1.39762 0.05 0.0
-1.39786 0.15 0.0
-1.39274 0.1 0.0
-1.44957 0.85 0.0
-1.44946 0.8 0.0
-1.4523 0.95 0.0
-1.44968 0.9 0.0
-1.4499 1 0.0
-1.3981 0.25 0.0
-1.38798 0.2 0.0
-1.42141 0.55 0.0
-1.3987 0.5 0.0
-1.39834 0.35 0.0
-1.37845 0.4 0.0
-1.37607 0.45 0.0
-1.40784 0.65 0.0
-1.39894 0.6 0.0
-1.41185 0.75 0.0
-1.39918 0.7 0.0
-1.38322 0.3 0.0
-1.34729 0 0.0
-1.34492 0.05 0.0
-1.34018 0.15 0.0
-1.34255 0.1 0.0
-1.40707 0.85 0.0
-1.39941 0.8 0.0
-1.39977 0.95 0.0
-1.39965 0.9 0.0
-1.39989 1 0.0
-1.33781 0.2 0.0
-1.33544 0.25 0.0
-1.37131 0.55 0.0
-1.34859 0.5 0.0
-1.33833 0.4 0.0
-1.3307 0.35 0.0
-1.32595 0.45 0.0
-1.34885 0.6 0.0
-1.36655 0.65 0.0
-1.36179 0.75 0.0
-1.34911 0.7 0.0
-1.33307 0.3 0.0
-1.29708 0 0.0
-1.29722 0.05 0.0
-1.2975 0.15 0.0
-1.29236 0.1 0.0
-1.35703 0.85 0.0
-1.34937 0.8 0.0
-1.34988 1 0.0
-1.34962 0.9 0.0
-1.35226 0.95 0.0
-1.28528 0.25 0.0
-1.28764 0.2 0.0
-1.28931 0.35 0.0
-1.32121 0.55 0.0
-1.29848 0.5 0.0
-1.28709 0.45 0.0
-1.2982 0.4 0.0
-1.29876 0.6 0.0
-1.31647 0.65 0.0
-1.29918 0.75 0.0
-1.29904 0.7 0.0
-1.28292 0.3 0.0
-1.24687 0 0.0
-1.24702 0.05 0.0
-1.24717 0.1 0.0
-1.24732 0.15 0.0
-1.29946 0.85 0.0
-1.29932 0.8 0.0
-1.29987 1 0.0
-1.29974 0.95 0.0
-1.30462 0.9 0.0
-1.24762 0.25 0.0
-1.23747 0.2 0.0
-1.24792 0.35 0.0
-1.22807 0.4 0.0
-1.27111 0.55 0.0
-1.24837 0.5 0.0
-1.24822 0.45 0.0
-1.24867 0.6 0.0
-1.26639 0.65 0.0
-1.26167 0.75 0.0
-1.24897 0.7 0.0
-1.23277 0.3 0.0
-1.19667 0 0.0
-1.19683 0.05 0.0
-1.18964 0.15 0.0
-1.19198 0.1 0.0
-1.25695 0.85 0.0
-1.24927 0.8 0.0
-1.25223 0.95 0.0
-1.24987 1 0.0
-1.24957 0.9 0.0
-1.1873 0.2 0.0
-1.18496 0.25 0.0
-1.18028 0.35 0.0
-1.17794 0.4 0.0
-1.1981 0.45 0.0
-1.19842 0.55 0.0
-1.19826 0.5 0.0
-1.19858 0.6 0.0
-1.19874 0.65 0.0
-1.19906 0.75 0.0
-1.1989 0.7 0.0
-1.18262 0.3 0.0
-1.14646 0 0.0
-1.14663 0.05 0.0
-1.1418 0.1 0.0
-1.13713 0.2 0.0
-1.14697 0.15 0.0
-1.20691 0.85 0.0
-1.20926 0.8 0.0
-1.20221 0.95 0.0
-1.19986 1 0.0
-1.20456 0.9 0.0
-1.13997 0.3 0.0
-1.14731 0.25 0.0
-1.13781 0.4 0.0
-1.13014 0.35 0.0
-1.12548 0.45 0.0
-1.14815 0.5 0.0
-1.15962 0.55 0.0
-1.14849 0.6 0.0
-1.15745 0.65 0.0
-1.16155 0.75 0.0
-1.14917 0.8 0.0
-1.14883 0.7 0.0
-1.09625 0 0.0
-1.09661 0.1 0.0
-1.09393 0.05 0.0
-1.09697 0.2 0.0
-1.08929 0.15 0.0
-1.15687 0.85 0.0
-1.14985 1 0.0
-1.15219 0.95 0.0
-1.14951 0.9 0.0
-1.09733 0.3 0.0
-1.08465 0.25 0.0
-1.09769 0.4 0.0
-1.08 0.35 0.0
-1.08661 0.45 0.0
-1.09804 0.5 0.0
-1.12082 0.55 0.0
-1.10916 0.8 0.0
-1.10629 0.7 0.0
-1.0984 0.6 0.0
-1.11616 0.65 0.0
-1.11149 0.75 0.0
-1.04604 0 0.0
-1.04623 0.05 0.0
-1.04642 0.1 0.0
-1.0468 0.2 0.0
-1.03911 0.15 0.0
-1.09948 0.9 0.0
-1.0993 0.85 0.0
-1.09984 1 0.0
-1.09966 0.95 0.0
-1.04718 0.3 0.0
-1.03449 0.25 0.0
-1.04756 0.4 0.0
-1.02986 0.35 0.0
-1.04775 0.45 0.0
-1.04794 0.5 0.0
-1.04813 0.55 0.0
-1.05911 0.8 0.0
-1.04831 0.6 0.0
-1.06376 0.7 0.0
-1.0485 0.65 0.0
-1.04888 0.75 0.0
-0.995833 0 0.0
-0.991231 0.1 0.0
-0.996033 0.05 0.0
-0.986629 0.2 0.0
-0.98893 0.15 0.0
-1.05447 0.9 0.0
-1.04926 0.85 0.0
-1.04983 1 0.0
-1.04964 0.95 0.0
-0.984328 0.25 0.0
-0.99703 0.3 0.0
-0.997429 0.4 0.0
-0.997628 0.45 0.0
-0.979726 0.35 0.0
-0.997827 0.5 0.0
-0.998027 0.55 0.0
-0.998226 0.6 0.0
-0.961416 0.475 0.0
-1.00907 0.8 0.0
-0.998426 0.65 0.0
-0.998625 0.7 0.0
-1.01138 0.75 0.0
-0.945625 0 0.0
-0.946044 0.1 0.0
-0.943334 0.05 0.0
-0.946463 0.2 0.0
-0.938752 0.15 0.0
-1.00444 0.9 0.0
-1.00675 0.85 0.0
-0.999821 1 0.0
-1.00213 0.95 0.0
-0.93417 0.25 0.0
-0.946881 0.3 0.0
-0.9473 0.4 0.0
-0.929588 0.35 0.0
-0.925005 0.45 0.0
-0.960371 0.525 0.0
-0.959325 0.575 0.0
-0.958279 0.625 0.0
-0.922714 0.5 0.0
-0.959017 0.8 0.0
-0.957233 0.675 0.0
-0.952999 0.7125 0.0
-0.948766 0.75 0.0
-0.895417 0 0.0
-0.895855 0.1 0.0
-0.893136 0.05 0.0
-0.896294 0.2 0.0
-0.888573 0.15 0.0
-0.949184 0.85 0.0
-0.954415 0.9 0.0
-0.949812 1 0.0
-0.949603 0.95 0.0
-0.884011 0.25 0.0
-0.896733 0.3 0.0
-0.874887 0.45 0.0
-0.879449 0.35 0.0
-0.897171 0.4 0.0
-0.920423 0.55 0.0
-0.918132 0.6 0.0
-0.915841 0.65 0.0
-0.872606 0.5 0.0
-0.908968 0.8 0.0
-0.91355 0.7 0.0
-0.898707 0.75 0.0
-0.845208 0 0.0
-0.845438 0.05 0.0
-0.845667 0.1 0.0
-0.845896 0.15 0.0
-0.833853 0.25 0.0
-0.846126 0.2 0.0
-0.899146 0.85 0.0
-0.904386 0.9 0.0
-0.899584 0.95 0.0
-0.899804 1 0.0
-0.838062 0.35 0.0
[...]
POINT_DATA 10839
VECTORS Velocity float
0.21 0 0.0
0.24 0 0.0
0.2275 0 0.0
0.2475 0 0.0
0.25 0 0.0
0.2475 0 0.0
0 0 0.0
0.0475 0 0.0
0.1275 0 0.0
0.09 0 0.0
0.09 0 0.0
0.1275 0 0.0
0.1875 0 0.0
0.16 0 0.0
0.195557 -2.41067e-05 0.0
0.242841 -3.2912e-05 0.0
0.215776 -2.87046e-05 0.0
0.231406 -3.23677e-05 0.0
0.248725 -3.50453e-05 0.0
0.24 0 0.0
0.24284 -3.28376e-05 0.0
0.24852 -3.37491e-05 0.0
0 0 0.0
0.0622239 -4.18629e-06 0.0
0.0322269 -2.76668e-06 0.0
0.16 0 0.0
0.1875 0 0.0
0.21 0 0.0
0.2275 0 0.0
0.193592 -2.70593e-05 0.0
0.138887 -1.50054e-05 0.0
0 0 0.0
0.0475 0 0.0
0.0998415 -1.04123e-05 0.0
0.0622206 -4.23314e-06 0.0
0.0998462 -1.08808e-05 0.0
0.138891 -1.51403e-05 0.0
0.17438 -3.79961e-05 0.0
0.201606 -5.20815e-05 0.0
0.235787 -6.36261e-05 0.0
0.244085 -6.65852e-05 0.0
0.223602 -8.53179e-05 0.0
0.249751 -6.95741e-05 0.0
0.249044 -7.75359e-05 0.0
0.231404 -3.28939e-05 0.0
0.244081 -6.57948e-05 0.0
0 0 0.0
0.0361081 -5.36059e-06 0.0
0.0736127 -1.49981e-05 0.0
0.0622492 -1.64452e-05 0.0
0.17437 -3.74338e-05 0.0
0.220162 -5.207e-05 0.0
0.201594 -5.21572e-05 0.0
0.115548 -2.24163e-05 0.0
0.146676 -3.47666e-05 0.0
0 0 0.0
0.0360874 -3.60732e-06 0.0
0.0693661 -1.17175e-05 0.0
0.0899834 -2.32875e-05 0.0
0.109391 -3.15242e-05 0.0
0.146692 -3.40969e-05 0.0
0.178902 -6.37693e-05 0.0
0.206293 -8.34419e-05 0.0
0.214501 -0.000112529 0.0
0.238527 -9.98057e-05 0.0
0.24735 -0.000103943 0.0
0.229607 -0.000127105 0.0
0.226323 -8.96532e-05 0.0
0.249983 -0.000104459 0.0
0.246426 -0.000101619 0.0
0.23668 -9.56593e-05 0.0
0 0 0.0
0.0322506 -6.06638e-06 0.0
0.0956967 -3.58265e-05 0.0
0.0694294 -2.70061e-05 0.0
0.178876 -6.27941e-05 0.0
0.206269 -8.40699e-05 0.0
0.127476 -4.83839e-05 0.0
0.165873 -7.9516e-05 0.0
0.152325 -5.68876e-05 0.0
0 0 0.0
0.0360796 -5.19172e-06 0.0
0.0621957 -1.62692e-05 0.0
0.0956298 -3.64988e-05 0.0
0.127525 -4.88549e-05 0.0
0.156661 -7.10386e-05 0.0
0.115601 -5.61324e-05 0.0
0.193626 -0.000117346 0.0
0.218141 -0.000148595 0.0
0.24094 -0.000135456 0.0
0.247737 -0.000140496 0.0
0.25 -0.000142034 0.0
0.234398 -0.000172102 0.0
0.229576 -0.000125346 0.0
0.247727 -0.000140185 0.0
0.240919 -0.000135216 0.0
0 0 0.0
0.0344872 -8.41271e-06 0.0
0.103121 -5.51842e-05 0.0
0.0623032 -2.73745e-05 0.0
0.189727 -9.966e-05 0.0
0.212988 -0.000139364 0.0
0.170534 -0.000107975 0.0
0.144329 -8.00845e-05 0.0
0 0 0.0
0.0398981 -8.95304e-06 0.0
0.099786 -5.01305e-05 0.0
0.0693211 -2.65581e-05 0.0
0.170624 -0.000108108 0.0
0.144421 -8.1819e-05 0.0
0.124377 -8.30312e-05 0.0
0.18365 -0.00013679 0.0
0.204132 -0.000163862 0.0
0.222039 -0.000193036 0.0
0.249109 -0.000186649 0.0
0.244027 -0.00018166 0.0
0.24912 -0.000186657 0.0
0.238551 -0.000219345 0.0
0.234353 -0.000171089 0.0
0.244883 -0.000196811 0.0
0 0 0.0
0.0322919 -8.91827e-06 0.0
0.0940745 -5.80567e-05 0.0
0.0652176 -3.46803e-05 0.0
0.196696 -0.000149612 0.0
0.217871 -0.000183942 0.0
0.177437 -0.000151929 0.0
0.148689 -0.000105875 0.0
0.120329 -7.40448e-05 0.0
0 0 0.0
0.0343908 -8.49254e-06 0.0
0.071644 -3.47677e-05 0.0
0.152425 -0.000118817 0.0
0.127615 -0.000103242 0.0
0.187579 -0.000169845 0.0
0.211951 -0.000211705 0.0
0.248605 -0.000231933 0.0
0.225686 -0.000239951 0.0
0.249783 -0.000233618 0.0
0.246474 -0.00022967 0.0
0.242065 -0.00026903 0.0
0.23849 -0.000218728 0.0
0 0 0.0
0.0338742 -1.11927e-05 0.0
0.0999937 -7.76878e-05 0.0
0.0695456 -4.62457e-05 0.0
0.20626 -0.000198161 0.0
0.222404 -0.000231114 0.0
0.189974 -0.000206058 0.0
0.168253 -0.000166304 0.0
0.143003 -0.000127463 0.0
0.124193 -9.3946e-05 0.0
0.0970836 -6.30405e-05 0.0
0 0 0.0
0.0360209 -1.08313e-05 0.0
0.0673146 -3.72961e-05 0.0
0.130335 -0.000124935 0.0
0.168483 -0.000167121 0.0
0.199473 -0.000218167 0.0
0.218379 -0.000256175 0.0
0.241992 -0.000269693 0.0
0.25 -0.000281546 0.0
0.247989 -0.000278257 0.0
0.229082 -0.000289195 0.0
0.244938 -0.000320699 0.0
0.248741 -0.000295534 0.0
0.234445 -0.000276416 0.0
0 0 0.0
0.0362326 -1.44493e-05 0.0
0.12266 -0.000128122 0.0
0.0712301 -5.47703e-05 0.0
0.208349 -0.000242667 0.0
0.225125 -0.000289014 0.0
0.198047 -0.000252108 0.0
0.177724 -0.000208645 0.0
0.146525 -0.000153721 0.0
0.119131 -0.000107272 0.0
0.0970506 -7.15815e-05 0.0
0 0 0.0
0.0349388 -1.2138e-05 0.0
0.0672772 -4.2032e-05 0.0
0.152302 -0.000174895 0.0
0.178018 -0.000213589 0.0
0.210117 -0.000270351 0.0
0.244858 -0.000320625 0.0
0.24942 -0.000329391 0.0
0.232226 -0.000340554 0.0
0.244198 -0.000365168 0.0
0.249988 -0.000389886 0.0
0.249132 -0.000346192 0.0
0.235912 -0.000331427 0.0
0.212964 -0.000330562 0.0
0 0 0.0
0.0371615 -1.70409e-05 0.0
0.141112 -0.000178565 0.0
0.0999595 -0.000107861 0.0
0.0666008 -5.34084e-05 0.0
0.213628 -0.00029561 0.0
0.186606 -0.000257346 0.0
0.165083 -0.000209329 0.0
0.122239 -0.000128801 0.0
0.0928649 -7.85963e-05 0.0
0 0 0.0
0.0349091 -1.35641e-05 0.0
0.0642258 -4.46694e-05 0.0
0.165599 -0.000223853 0.0
0.186969 -0.000263134 0.0
0.158126 -0.000234375 0.0
0.247091 -0.000375061 0.0
0.248691 -0.000431449 0.0
0.231053 -0.000382712 0.0
0.240527 -0.000408484 0.0
0.248758 -0.000431077 0.0
0.240202 -0.000381598 0.0
0.229255 -0.000375034 0.0
0.199184 -0.000323715 0.0
0.218636 -0.000387092 0.0
0 0 0.0
0.0346493 -1.67277e-05 0.0
0.126172 -0.00017366 0.0
0.0681798 -6.03969e-05 0.0
0.0988222 -0.000117545 0.0
0.208081 -0.000338514 0.0
0.189757 -0.000295062 0.0
0.168124 -0.000244828 0.0
0.140617 -0.000177208 0.0
0.0954073 -9.35935e-05 0.0
0 0 0.0
0.033253 -1.38912e-05 0.0
0.0660547 -5.32284e-05 0.0
0.183226 -0.000305961 0.0
0.159266 -0.000262472 0.0
0.244898 -0.000444961 0.0
0.24966 -0.00048863 0.0
0.235963 -0.000448178 0.0
0.244859 -0.000473744 0.0
0.249378 -0.000487402 0.0
0.238619 -0.00045066 0.0
0.218418 -0.000407327 0.0
0.203107 -0.000377971 0.0
0.223373 -0.000442821 0.0
0 0 0.0
0.0478069 -3.34352e-05 0.0
0.127925 -0.000198137 0.0
0.090427 -0.000110379 0.0
0.202605 -0.000364101 0.0
0.177964 -0.000299385 0.0
0.147884 -0.000224556 0.0
0.118717 -0.000147091 0.0
0.078025 -7.85667e-05 0.0
0 0 0.0
0.0342311 -1.6376e-05 0.0
0.187835 -0.000362515 0.0
0.160405 -0.000292202 0.0
0.246451 -0.000508772 0.0
0.25 -0.000548307 0.0
0.240141 -0.000517713 0.0
0.247578 -0.000570903 0.0
0.239858 -0.000517345 0.0
0.22729 -0.000479004 0.0
0.209726 -0.000426115 0.0
0.227726 -0.000502755 0.0
0.210293 -0.000444019 0.0
0 0 0.0
0.0478707 -3.72986e-05 0.0
0.128021 -0.000221311 0.0
0.09051 -0.000121403 0.0
0.187166 -0.000360659 0.0
0.159614 -0.000282617 0.0
0.0471971 -3.27681e-05 0.0
0.127079 -0.000195404 0.0
0.089586 -0.000108023 0.0
0 0 0.0
0.187912 -0.000407582 0.0
0.160496 -0.00032719 0.0
0.247419 -0.000577472 0.0
0.249999 -0.000618036 0.0
0.240174 -0.0005839 0.0
0.247595 -0.000642048 0.0
0.227242 -0.000539585 0.0
0.239825 -0.000582828 0.0
0.187089 -0.000405373 0.0
0.209663 -0.000479673 0.0
0.227767 -0.000552107 0.0
0.210359 -0.000499298 0.0
0 0 0.0
0.047941 -4.09106e-05 0.0
0.128128 -0.000246157 0.0
0.0906225 -0.000136188 0.0
0.126983 -0.000219066 0.0
0.159526 -0.000317256 0.0
0.0471375 -3.63401e-05 0.0
0.0894953 -0.000120097 0.0
0 0 0.0
0.187999 -0.000455335 0.0
0.160599 -0.000364863 0.0
0.247401 -0.000648409 0.0
0.249999 -0.000692643 0.0
0.227812 -0.000605807 0.0
0.240226 -0.000683195 0.0
0.247614 -0.000718787 0.0
0.227197 -0.000590955 0.0
0.239788 -0.000653134 0.0
0.187025 -0.000439762 0.0
0.209591 -0.000536832 0.0
0.210433 -0.000558316 0.0
0 0 0.0
0.0480235 -4.55005e-05 0.0
0.128267 -0.000276977 0.0
0.0907372 -0.000150461 0.0
0.126894 -0.000239352 0.0
0.159426 -0.000353387 0.0
0.0470651 -4.03623e-05 0.0
0.0893949 -0.000132599 0.0
0 0 0.0
0.160714 -0.00040485 0.0
0.188123 -0.000519301 0.0
0.247381 -0.000724452 0.0
0.249999 -0.000772737 0.0
0.240261 -0.000746192 0.0
0.227897 -0.000700909 0.0
0.247636 -0.000800181 0.0
0.239746 -0.000728054 0.0
0.227148 -0.000646997 0.0
0.186931 -0.000489315 0.0
0.20951 -0.000597601 0.0
0.210516 -0.000622127 0.0
0 0 0.0
0.0481065 -5.02041e-05 0.0
0.128382 -0.000302067 0.0
0.0908639 -0.000166041 0.0
0.126777 -0.000264919 0.0
0.159314 -0.000392421 0.0
0 0 0.0
0.0892827 -0.000146651 0.0
0.0469921 -4.4345e-05 0.0
0.188235 -0.000577723 0.0
0.160842 -0.000448843 0.0
0.227956 -0.000764368 0.0
0.247359 -0.000806914 0.0
0.249998 -0.00085952 0.0
0.247654 -0.000868846 0.0
0.240298 -0.000812068 0.0
0.239699 -0.000809259 0.0
0.227081 -0.000719607 0.0
0.186796 -0.000556155 0.0
0.20942 -0.000664056 0.0
0.210609 -0.000690318 0.0
0 0 0.0
0.048201 -5.536e-05 0.0
0.0909894 -0.000180978 0.0
0.12853 -0.000333311 0.0
0.126626 -0.000296746 0.0
0.15919 -0.000434342 0.0
0 0 0.0
0.0469046 -4.87571e-05 0.0
0.0891728 -0.00015959 0.0
0.188329 -0.000623208 0.0
0.160985 -0.000496669 0.0
0.228018 -0.000832524 0.0
0.240371 -0.000938342 0.0
0.247333 -0.000896352 0.0
0.249997 -0.00095305 0.0
0.247675 -0.000941121 0.0
0.239647 -0.00089716 0.0
0.227007 -0.000798397 0.0
0.186705 -0.000600327 0.0
0.209319 -0.000734891 0.0
0.210713 -0.000765068 0.0
0 0 0.0
0.0483062 -6.08029e-05 0.0
0.128721 -0.000374132 0.0
0.0911592 -0.000202227 0.0
0.126502 -0.000322499 0.0
0.159051 -0.00047971 0.0
0.0468172 -5.29297e-05 0.0
0 0 0.0
0.0890247 -0.000177021 0.0
0.161143 -0.000548797 0.0
0.1885 -0.000705636 0.0
0.228137 -0.000954218 0.0
0.240431 -0.00104025 0.0
0.247702 -0.00104287 0.0
0.247291 -0.00103722 0.0
0.249996 -0.00105657 0.0
0.239588 -0.000994837 0.0
0.226893 -0.000913551 0.0
0.186539 -0.000679006 0.0
0.209207 -0.000813263 0.0
0.210828 -0.000845939 0.0
0 0 0.0
0.0484209 -6.67561e-05 0.0
0.0913294 -0.000221928 0.0
0.161318 -0.000604134 0.0
0.128877 -0.000405839 0.0
0.126342 -0.000354949 0.0
0.158929 -0.000518727 0.0
0.0467157 -5.8392e-05 0.0
0 0 0.0
0.0888893 -0.00019292 0.0
0.210936 -0.000920974 0.0
0.188616 -0.000761668 0.0
0.240484 -0.0011263 0.0
0.228234 -0.00105736 0.0
0.24775 -0.00120393 0.0
0.249995 -0.00116788 0.0
0.247265 -0.00112118 0.0
0.239523 -0.00109923 0.0
0.226814 -0.000991607 0.0
0.186427 -0.000730943 0.0
0.158727 -0.000583093 0.0
0.209083 -0.000897184 0.0
0 0 0.0
0.0915 -0.000242794 0.0
0.0485561 -7.43026e-05 0.0
0.161472 -0.000654926 0.0
0.129109 -0.000455549 0.0
0.126166 -0.000390781 0.0
0 0 0.0
0.0466046 -6.40677e-05 0.0
0.088709 -0.000213863 0.0
0.211054 -0.00100061 0.0
0.188826 -0.00086342 0.0
0.24054 -0.00121892 0.0
0.228343 -0.00116885 0.0
0.247776 -0.00130298 0.0
0.249993 -0.00129075 0.0
0.247237 -0.00121345 0.0
0.158577 -0.000627546 0.0
0.208966 -0.000974594 0.0
0.239449 -0.00121233 0.0
0.226728 -0.00107659 0.0
0.186265 -0.000806174 0.0
0 0 0.0
0.0486892 -8.11357e-05 0.0
0.091704 -0.000267075 0.0
0.161683 -0.000721601 0.0
0.129336 -0.000502615 0.0
0.0885267 -0.000234101 0.0
0.125941 -0.000435694 0.0
0 0 0.0
0.0464769 -7.06807e-05 0.0
0.211205 -0.00110446 0.0
0.189017 -0.000953705 0.0
0.240618 -0.00134579 0.0
0.228463 -0.00129143 0.0
0.247807 -0.00140891 0.0
0.249992 -0.00142634 0.0
0.247178 -0.0013974 0.0
0.158375 -0.000690077 0.0
0.239369 -0.00133855 0.0
0.20884 -0.00105593 0.0
0.226574 -0.00122988 0.0
0.186038 -0.000912295 0.0
0 0 0.0
0.0919546 -0.000297404 0.0
0.0488433 -8.93466e-05 0.0
0.161963 -0.000810871 0.0
0.129584 -0.000554381 0.0
0.088348 -0.000254706 0.0
0.125723 -0.000479925 0.0
0 0 0.0
0.0463419 -7.76786e-05 0.0
0.189226 -0.00105403 0.0
0.211374 -0.00121982 0.0
0.240704 -0.00148746 0.0
0.247849 -0.0015528 0.0
0.228595 -0.00142561 0.0
0.24999 -0.00157165 0.0
0.247133 -0.0015449 0.0
0.239281 -0.00147417 0.0
0.249559 -0.00168504 0.0
0.158149 -0.000758696 0.0
0.226442 -0.00135672 0.0
0.208623 -0.0011973 0.0
0.185887 -0.000980521 0.0
0 0 0.0
0.0921839 -0.00032523 0.0
0.0490242 -9.95876e-05 0.0
0.162173 -0.000878327 0.0
0.129859 -0.000611499 0.0
0.0881312 -0.00027952 0.0
0.12552 -0.000520364 0.0
0 0 0.0
0.0462026 -8.49542e-05 0.0
0.189458 -0.00116366 0.0
0.21156 -0.00134722 0.0
0.240795 -0.0016401 0.0
0.228742 -0.00157588 0.0
0.247916 -0.00179274 0.0
0.249163 -0.00168453 0.0
0.24377 -0.00163467 0.0
0.233387 -0.00153527 0.0
0.249984 -0.00182299 0.0
0.157902 -0.000834061 0.0
0.218019 -0.00139031 0.0
0.203212 -0.00125738 0.0
0.185611 -0.0011036 0.0
0 0 0.0
0.0924589 -0.000358681 0.0
0.0492119 -0.00010921 0.0
0.162455 -0.000970186 0.0
0.130163 -0.000675496 0.0
0.12522 -0.00058015 0.0
0.087892 -0.000307304 0.0
0 0 0.0
0.0460343 -9.3044e-05 0.0
0.189715 -0.00128589 0.0
0.211765 -0.00148827 0.0
0.247964 -0.00197623 0.0
0.228902 -0.00174035 0.0
0.240902 -0.0018118 0.0
0.247049 -0.00179963 0.0
0.239117 -0.00172228 0.0
0.226195 -0.00159232 0.0
0.249976 -0.00201025 0.0
0.157628 -0.000918245 0.0
0.208294 -0.0014106 0.0
0.185361 -0.00121503 0.0
0 0 0.0
0.0494096 -0.000119711 0.0
0.0927635 -0.000396686 0.0
0.130447 -0.000734833 0.0
0.189997 -0.00141935 0.0
0.162771 -0.00107212 0.0
0.124929 -0.000637779 0.0
0.0876287 -0.000338108 0.0
0.0458555 -0.000102316 0.0
0 0 0.0
0.229048 -0.00189047 0.0
0.211993 -0.00164665 0.0
0.248009 -0.00213519 0.0
0.241013 -0.00200354 0.0
0.226023 -0.00175219 0.0
0.246984 -0.00198285 0.0
0.238995 -0.00189684 0.0
0.24997 -0.00221667 0.0
0.18509 -0.00133512 0.0
0.157266 -0.00102692 0.0
0.208 -0.00159663 0.0
0 0 0.0
0.049639 -0.000132844 0.0
0.0931374 -0.000442924 0.0
0.130813 -0.000811331 0.0
0.190228 -0.00153436 0.0
0.163192 -0.00121466 0.0
0.124611 -0.000700188 0.0
0.0873113 -0.000375249 0.0
0.0456611 -0.000112095 0.0
0 0 0.0
0.124259 -0.000770958 0.0
0.229204 -0.00204806 0.0
0.212322 -0.00188197 0.0
0.241189 -0.00230673 0.0
0.248054 -0.0023034 0.0
0.225763 -0.00199217 0.0
0.238866 -0.00208679 0.0
0.246914 -0.00218647 0.0
0.249957 -0.00244439 0.0
0.184791 -0.00146706 0.0
0.156929 -0.00113214 0.0
0.207749 -0.00175909 0.0
0 0 0.0
0.0498922 -0.000146719 0.0
0.0935164 -0.000490845 0.0
0.131219 -0.000899254 0.0
0.190568 -0.00169671 0.0
0.163589 -0.00134793 0.0
0.045443 -0.000124557 0.0
0.0869875 -0.000414026 0.0
0 0 0.0
0.123936 -0.000833756 0.0
0.229412 -0.00226969 0.0
0.212608 -0.00208622 0.0
0.241329 -0.0025498 0.0
0.248113 -0.00254636 0.0
0.225581 -0.00215667 0.0
0.238722 -0.00229553 0.0
0.249944 -0.00269719 0.0
0.246796 -0.00251663 0.0
0.184545 -0.00157141 0.0
0.156559 -0.00124419 0.0
0.207471 -0.00193145 0.0
0 0 0.0
0.0501705 -0.000161969 0.0
0.0939341 -0.000543341 0.0
0.131739 -0.00101204 0.0
0.191038 -0.00193002 0.0
0.212921 -0.00231667 0.0
0.164025 -0.00149926 0.0
0.0452197 -0.000136408 0.0
0.0866358 -0.000455208 0.0
0 0 0.0
0.123522 -0.000915622 0.0
0.22972 -0.00260072 0.0
0.241448 -0.0027689 0.0
0.248177 -0.00281445 0.0
0.249927 -0.00290636 0.0
0.22539 -0.00232904 0.0
0.238553 -0.00252892 0.0
0.246699 -0.00277206 0.0
0.156154 -0.00136702 0.0
0.184193 -0.0017248 0.0
0.207164 -0.00211944 0.0
0 0 0.0
0.0505006 -0.000181572 0.0
0.0944033 -0.000606658 0.0
0.13225 -0.00112993 0.0
0.191357 -0.00209338 0.0
0.213264 -0.00257029 0.0
0.164511 -0.00167023 0.0
0.0449597 -0.000149686 0.0
0.0862485 -0.000500301 0.0
0 0 0.0
0.155804 -0.00146509 0.0
0.0858259 -0.000546847 0.0
0.122997 -0.00101631 0.0
0.229977 -0.00289838 0.0
0.241572 -0.00299635 0.0
0.248271 -0.00325425 0.0
0.249912 -0.00312577 0.0
0.246616 -0.00298951 0.0
0.225132 -0.00255507 0.0
0.238295 -0.00288904 0.0
0.183701 -0.00193086 0.0
0.206879 -0.00229715 0.0
0.230207 -0.00315432 0.0
0 0 0.0
0.0508503 -0.000202908 0.0
0.13282 -0.00126583 0.0
0.0949263 -0.000680819 0.0
0.213645 -0.00286604 0.0
0.191932 -0.00239634 0.0
0.16505 -0.00186568 0.0
0.0446618 -0.000164548 0.0
0 0 0.0
0.183375 -0.00206884 0.0
0.155327 -0.00160302 0.0
0.12249 -0.00111331 0.0
0.0443444 -0.000181871 0.0
0.0853603 -0.000599565 0.0
0.241743 -0.00332269 0.0
0.248323 -0.00352175 0.0
0.249875 -0.0034493 0.0
0.249845 -0.00371794 0.0
0.246519 -0.00321983 0.0
0.224839 -0.00280495 0.0
0.23807 -0.00317606 0.0
0.206567 -0.00247547 0.0
0.230442 -0.00343977 0.0
0.0512256 -0.000228098 0.0
0 0 0.0
0.133356 -0.00139525 0.0
0.0955097 -0.000764831 0.0
0.214057 -0.00319711 0.0
0.19232 -0.00260844 0.0
0.165652 -0.00209283 0.0
0 0 0.0
0.182908 -0.00225289 0.0
0.154697 -0.00177448 0.0
0.122029 -0.00119162 0.0
0.0440204 -0.000197672 0.0
0.0848562 -0.000653208 0.0
0.24199 -0.00384597 0.0
0.248375 -0.00380304 0.0
0.249802 -0.00400007 0.0
0.246314 -0.00369066 0.0
0.22452 -0.00307004 0.0
0.237829 -0.00348622 0.0
0.206038 -0.00278042 0.0
0.230764 -0.00383446 0.0
0 0 0.0
0.0516659 -0.000259567 0.0
0.134054 -0.00157462 0.0
0.0961049 -0.000856525 0.0
0.166317 -0.00235092 0.0
0.21451 -0.00357829 0.0
0.193025 -0.00300406 0.0
0 0 0.0
0 0 0.0
0.18239 -0.00245327 0.0
0.154117 -0.00192965 0.0
0.12144 -0.00129386 0.0
0.0843098 -0.000708398 0.0
0.0436491 -0.000214004 0.0
0.24218 -0.00427227 0.0
0.24843 -0.00421193 0.0
0.237606 -0.00375266 0.0
0.249734 -0.00441069 0.0
0.246134 -0.00406454 0.0
0.224158 -0.00336115 0.0
0.205575 -0.00302957 0.0
0.242331 -0.00465506 0.0
0.231091 -0.00427901 0.0
0.0521612 -0.00029344 0.0
0.0968372 -0.000968606 0.0
0.134842 -0.00178916 0.0
0.166908 -0.00259673 0.0
0.215005 -0.00400746 0.0
0.193493 -0.0032929 0.0
0 0 0.0
0 0 0.0
0.153618 -0.00204693 0.0
0.181675 -0.00270821 0.0
0.0837796 -0.000755445 0.0
0.120704 -0.00141043 0.0
0.0432452 -0.000232639 0.0
0.248505 -0.00486728 0.0
0.249634 -0.00486893 0.0
0.205068 -0.00329306 0.0
0.237358 -0.00403008 0.0
0.245979 -0.00437797 0.0
0.223601 -0.0037798 0.0
0.242489 -0.00505617 0.0
0.231586 -0.00497113 0.0
0.215534 -0.00450198 0.0
0.052764 -0.00033796 0.0
0.0976743 -0.00111236 0.0
0.135867 -0.00208206 0.0
0.167719 -0.00293678 0.0
0.194346 -0.00383201 0.0
0 0 0.0
0 0 0.0
0.152802 -0.00223221 0.0
0.181034 -0.0029293 0.0
0.083088 -0.000814768 0.0
0.120008 -0.00151021 0.0
0.0427946 -0.00024946 0.0
0.245798 -0.00471145 0.0
0.249508 -0.00536145 0.0
0.248524 -0.00539938 0.0
0.204504 -0.00356871 0.0
0.237015 -0.00441072 0.0
0.223125 -0.00412692 0.0
0.180332 -0.00315187 0.0
0.242747 -0.00586614 0.0
0 0 0.0
0.231948 -0.00557908 0.0
0.195105 -0.00434856 0.0
0.216098 -0.00506067 0.0
0.0534015 -0.000391625 0.0
0.136732 -0.00234919 0.0
0.0987411 -0.00131217 0.0
0.168806 -0.00344935 0.0
0 0 0.0
0 0 0.0
0 0 0.0
0 0 0.0
0 0 0.0
0.0423581 -0.000263229 0.0
0.119258 -0.00161095 0.0
0.152053 -0.0023917 0.0
0.0824805 -0.000862866 0.0
0.245525 -0.00516189 0.0
0.249339 -0.005907 0.0
0.24853 -0.00598479 0.0
0.222685 -0.00440971 0.0
0.20387 -0.0038571 0.0
0.236434 -0.00498356 0.0
0.20328 -0.00410828 0.0
0.179756 -0.00331582 0.0
0.242907 -0.00654192 0.0
0.232332 -0.00624552 0.0
0 0 0.0
9.13847e-05 -4.12313e-05 0.0
0 0 0.0
-0.000244563 0.00112046 0.0
0.216707 -0.0057105 0.0
0.195726 -0.00478371 0.0
0.0542119 -0.000464879 0.0
0.137864 -0.00271091 0.0
0.0998645 -0.00153582 0.0
0.16984 -0.00396337 0.0
0 0 0.0
0 0 0.0
0 0 0.0
-0.000169628 0.000498302 0.0
1.07444e-05 -0.000163431 0.0
9.82163e-05 -0.000114887 0.0
0 0 0.0
0.0418673 -0.000279709 0.0
0.118584 -0.00168925 0.0
0.151241 -0.00254544 0.0
0.0816984 -0.000917146 0.0
0.245206 -0.00566179 0.0
0.249119 -0.00650096 0.0
0.248497 -0.00662466 0.0
0.2222 -0.00471384 0.0
0.236051 -0.0053491 0.0
0.20263 -0.00435932 0.0
0.17871 -0.00359134 0.0
0.243056 -0.00728347 0.0
0.235747 -0.00703982 0.0
0.225587 -0.00664545 0.0
0 0 0.0
0.000179528 -2.69813e-05 0.0
0 0 0.0
0 0 0.0
-0.000897985 0.00280445 0.0
-0.000804482 0.00167475 0.0
0.212551 -0.00613842 0.0
0.196596 -0.00545233 0.0
0.101033 -0.00178324 0.0
0.0550849 -0.000558275 0.0
0.139145 -0.00315865 0.0
0.170967 -0.00457016 0.0
0 0 0.0
-0.000217584 0.000107545 0.0
-0.000498457 0.000711417 0.0
-7.03739e-05 -4.78733e-05 0.0
3.16794e-05 3.04018e-05 0.0
0 0 0.0
0.0413519 -0.000294799 0.0
0.117742 -0.001778 0.0
0.150369 -0.00268779 0.0
0.0809416 -0.000963647 0.0
0.244818 -0.00619518 0.0
0.248843 -0.00714419 0.0
0.248417 -0.00732776 0.0
0.221294 -0.00524163 0.0
0.235615 -0.00571848 0.0
0.201782 -0.00467095 0.0
0.149424 -0.00283822 0.0
0.177775 -0.00381919 0.0
0.243147 -0.00792695 0.0
0.232952 -0.00755538 0.0
0.217793 -0.00705178 0.0
0 0 0.0
0.000112948 5.06438e-05 0.0
0 0 0.0
0 0 0.0
0 0 0.0
0 0 0.0
-0.00139324 0.00181792 0.0
-0.000274228 0.00256002 0.0
-0.000959872 0.00382265 0.0
-0.00218847 0.0051181 0.0
-0.00174865 0.00329588 0.0
0 0 0.0
-9.58364e-05 0.00442034 0.0
0.197761 -0.00646563 0.0
0.17195 -0.00515931 0.0
0 0 0.0
0.0562346 -0.000693528 0.0
0.102528 -0.00213646 0.0
0.140828 -0.00384303 0.0
0 0 0.0
0 0 0.0
-0.000738202 0.000732103 0.0
-0.00045623 0.000374306 0.0