# vtk DataFile Version 3.0
Mesh NS-CD Problem
ASCII
DATASET UNSTRUCTURED_GRID
POINTS 10839 float
-2 0.3 0.0
-2 0.4 0.0
-2 0.35 0.0
-2 0.45 0.0
-2 0.5 0.0
-2 0.55 0.0
-2 0 0.0
-2 0.05 0.0
-2 0.85 0.0
-2 0.9 0.0
-2 0.1 0.0
-2 0.15 0.0
-2 0.25 0.0
-2 0.2 0.0
-1.96653 0.266667 0.0
-1.96524 0.415385 0.0
-1.96485 0.315 0.0
-1.96348 0.363636 0.0
-1.96414 0.464286 0.0
-2 0.6 0.0
-1.96538 0.584615 0.0
-1.96538 0.538462 0.0
-1.94979 0 0.0
-1.96653 0.0666666 0.0
-1.93306 0.0333333 0.0
-2 0.8 0.0
-2 0.75 0.0
-2 0.7 0.0
-2 0.65 0.0
-1.96249 0.7375 0.0
-1.96666 0.833333 0.0
-2 1 0.0
-2 0.95 0.0
-1.96249 0.8875 0.0
-1.96666 0.933333 0.0
-1.96234 0.1125 0.0
-1.96653 0.166667 0.0
-1.93724 0.225 0.0
-1.92971 0.28 0.0
-1.93048 0.380769 0.0
-1.93048 0.423077 0.0
-1.89958 0.3375 0.0
-1.9292 0.484203 0.0
-1.92117 0.530907 0.0
-1.96363 0.636364 0.0
-1.93076 0.576923 0.0
-1.89958 0 0.0
-1.88703 0.0375 0.0
-1.90963 0.08 0.0
-1.86611 0.0666666 0.0
-1.93749 0.775 0.0
-1.93635 0.672727 0.0
-1.92999 0.72 0.0
-1.93332 0.866667 0.0
-1.92856 0.821429 0.0
-1.94999 1 0.0
-1.92499 0.9625 0.0
-1.92499 0.925 0.0
-1.89998 0.9 0.0
-1.89958 0.125 0.0
-1.92827 0.178571 0.0
-1.89958 0.233333 0.0
-1.89045 0.290909 0.0
-1.86096 0.311538 0.0
-1.89241 0.392857 0.0
-1.89334 0.448489 0.0
-1.85655 0.357143 0.0
-1.89614 0.653846 0.0
-1.89427 0.504121 0.0
-1.8952 0.559753 0.0
-1.89614 0.615385 0.0
-1.84937 0 0.0
-1.83264 0.0333333 0.0
-1.85655 0.107143 0.0
-1.81172 0.075 0.0
-1.89998 0.766667 0.0
-1.89089 0.709091 0.0
-1.87498 0.85 0.0
-1.85998 0.79 0.0
-1.88748 0.8125 0.0
-1.89998 1 0.0
-1.88748 0.9625 0.0
-1.86664 0.933333 0.0
-1.85712 0.892857 0.0
-1.87448 0.15 0.0
-1.86611 0.194444 0.0
-1.83264 0.133333 0.0
-1.83264 0.2625 0.0
-1.82068 0.321429 0.0
-1.85664 0.404762 0.0
-1.85674 0.452381 0.0
-1.85683 0.5 0.0
-1.81184 0.375 0.0
-1.85712 0.642857 0.0
-1.85693 0.547619 0.0
-1.85702 0.595238 0.0
-1.79917 0 0.0
-1.78482 0.0357143 0.0
-1.79917 0.116667 0.0
-1.76569 0.0666666 0.0
-1.85452 0.745455 0.0
-1.82689 0.692308 0.0
-1.81815 0.781818 0.0
-1.82497 0.825 0.0
-1.84997 1 0.0
-1.8333 0.958333 0.0
-1.81247 0.8875 0.0
-1.81247 0.925 0.0
-1.81742 0.218182 0.0
-1.82427 0.175 0.0
-1.77634 0.145455 0.0
-1.79144 0.242308 0.0
-1.78482 0.285714 0.0
-1.77469 0.332653 0.0
-1.81215 0.529762 0.0
-1.81194 0.422619 0.0
-1.81203 0.470238 0.0
-1.76714 0.392857 0.0
-1.81234 0.625 0.0
-1.79732 0.571429 0.0
-1.74896 0 0.0
-1.73222 0.0333333 0.0
-1.75398 0.105 0.0
-1.71883 0.07 0.0
-1.79227 0.730769 0.0
-1.78007 0.679121 0.0
-1.75765 0.769231 0.0
-1.78178 0.818182 0.0
-1.78996 0.86 0.0
-1.79996 1 0.0
-1.78568 0.964286 0.0
-1.76663 0.922222 0.0
-1.76569 0.1875 0.0
-1.73222 0.15 0.0
-1.74896 0.25 0.0
-1.73714 0.304762 0.0
-1.76743 0.537202 0.0
-1.72869 0.343878 0.0
-1.76732 0.485119 0.0
-1.76723 0.440476 0.0
-1.72243 0.410714 0.0
-1.76757 0.607143 0.0
-1.69875 0 0.0
-1.68369 0.035 0.0
-1.69875 0.1125 0.0
-1.66528 0.075 0.0
-1.74341 0.708974 0.0
-1.73324 0.665934 0.0
-1.70441 0.74478 0.0
-1.71423 0.785714 0.0
-1.72303 0.826923 0.0
-1.74541 0.854545 0.0
-1.74541 0.890909 0.0
-1.74996 1 0.0
-1.73745 0.9625 0.0
-1.71359 0.927273 0.0
-1.68716 0.153846 0.0
-1.7131 0.214286 0.0
-1.70725 0.275 0.0
-1.69712 0.321939 0.0
-1.72279 0.589286 0.0
-1.72261 0.5 0.0
-1.7227 0.544643 0.0
-1.6827 0.355102 0.0
-1.67773 0.428571 0.0
-1.70763 0.464286 0.0
-1.70369 0.62449 0.0
-1.64854 0 0.0
-1.63181 0.0375 0.0
-1.64137 0.142857 0.0
-1.61764 0.0769231 0.0
-1.69458 0.703846 0.0
-1.67471 0.657437 0.0
-1.66143 0.727637 0.0
-1.67125 0.768571 0.0
-1.67851 0.821429 0.0
-1.68841 0.861538 0.0
-1.70904 0.890909 0.0
-1.69995 1 0.0
-1.68176 0.963636 0.0
-1.67267 0.927273 0.0
-1.65427 0.187143 0.0
-1.66718 0.231429 0.0
-1.66554 0.3 0.0
-1.67802 0.571429 0.0
-1.67792 0.523809 0.0
-1.6367 0.366327 0.0
-1.63682 0.423469 0.0
-1.62568 0.502976 0.0
-1.6629 0.470238 0.0
-1.65254 0.618367 0.0
-1.6059 0.307143 0.0
-1.59833 0 0.0
-1.58288 0.0384615 0.0
-1.60563 0.169643 0.0
-1.58179 0.112271 0.0
-1.56964 0.0714286 0.0
-1.64574 0.690385 0.0
-1.62827 0.751429 0.0
-1.63371 0.791071 0.0
-1.64279 0.857143 0.0
-1.65378 0.896154 0.0
-1.64994 1 0.0
-1.6363 0.963636 0.0
-1.61916 0.930769 0.0
-1.61345 0.209107 0.0
-1.62126 0.248571 0.0
-1.56989 0.196429 0.0
-1.63324 0.553571 0.0
-1.58846 0.535714 0.0
-1.59408 0.361905 0.0
-1.59161 0.402211 0.0
-1.58832 0.464286 0.0
-1.61504 0.598581 0.0
-1.59683 0.64359 0.0
-1.57899 0.274107 0.0
-1.56176 0.322381 0.0
-1.54812 0 0.0
-1.53378 0.0357143 0.0
-1.54593 0.147619 0.0
-1.53385 0.0732143 0.0
-1.53393 0.110714 0.0
-1.58522 0.704286 0.0
-1.58709 0.745 0.0
-1.58896 0.785714 0.0
-1.60695 0.830357 0.0
-1.60707 0.892857 0.0
-1.59993 1 0.0
-1.58454 0.965385 0.0
-1.57135 0.928571 0.0
-1.55209 0.241071 0.0
-1.5291 0.198214 0.0
-1.56936 0.570918 0.0
-1.54369 0.517857 0.0
-1.5464 0.380952 0.0
-1.54564 0.427721 0.0
-1.54488 0.47449 0.0
-1.55026 0.606122 0.0
-1.54222 0.677143 0.0
-1.52943 0.282857 0.0
-1.52143 0.33619 0.0
-1.49792 0 0.0
-1.49802 0.05 0.0
-1.49822 0.15 0.0
-1.49312 0.1 0.0
-1.5423 0.717143 0.0
-1.54419 0.767857 0.0
-1.54727 0.819048 0.0
-1.57122 0.861905 0.0
-1.53553 0.914286 0.0
-1.54992 1 0.0
-1.53563 0.964286 0.0
-1.49842 0.25 0.0
-1.48831 0.2 0.0
-1.5214 0.558929 0.0
-1.49891 0.5 0.0
-1.49871 0.4 0.0
-1.47631 0.45 0.0
-1.49911 0.6 0.0
-1.49921 0.65 0.0
-1.49931 0.7 0.0
-1.48111 0.35 0.0
-1.48351 0.3 0.0
-1.44771 0 0.0
-1.44782 0.05 0.0
-1.44804 0.15 0.0
-1.44793 0.1 0.0
-1.49941 0.75 0.0
-1.49951 0.8 0.0
-1.49981 0.95 0.0
-1.49961 0.85 0.0
-1.49971 0.9 0.0
-1.49991 1 0.0
-1.44826 0.25 0.0
-1.43815 0.2 0.0
-1.47151 0.55 0.0
-1.44881 0.5 0.0
-1.44859 0.4 0.0
-1.42619 0.45 0.0
-1.44913 0.65 0.0
-1.44902 0.6 0.0
-1.44935 0.75 0.0
-1.44924 0.7 0.0
-1.43972 0.35 0.0
-1.43336 0.3 0.0
-1.3975 0 0.0
-1.39762 0.05 0.0
-1.39786 0.15 0.0
-1.39274 0.1 0.0
-1.44957 0.85 0.0
-1.44946 0.8 0.0
-1.4523 0.95 0.0
-1.44968 0.9 0.0
-1.4499 1 0.0
-1.3981 0.25 0.0
-1.38798 0.2 0.0
-1.42141 0.55 0.0
-1.3987 0.5 0.0
-1.39834 0.35 0.0
-1.37845 0.4 0.0
-1.37607 0.45 0.0
-1.40784 0.65 0.0
-1.39894 0.6 0.0
-1.41185 0.75 0.0
-1.39918 0.7 0.0
-1.38322 0.3 0.0
-1.34729 0 0.0
-1.34492 0.05 0.0
-1.34018 0.15 0.0
-1.34255 0.1 0.0
-1.40707 0.85 0.0
-1.39941 0.8 0.0
-1.39977 0.95 0.0
-1.39965 0.9 0.0
-1.39989 1 0.0
-1.33781 0.2 0.0
-1.33544 0.25 0.0
-1.37131 0.55 0.0
-1.34859 0.5 0.0
-1.33833 0.4 0.0
-1.3307 0.35 0.0
-1.32595 0.45 0.0
-1.34885 0.6 0.0
-1.36655 0.65 0.0
-1.36179 0.75 0.0
-1.34911 0.7 0.0
-1.33307 0.3 0.0
-1.29708 0 0.0
-1.29722 0.05 0.0
-1.2975 0.15 0.0
-1.29236 0.1 0.0
-1.35703 0.85 0.0
-1.34937 0.8 0.0
-1.34988 1 0.0
-1.34962 0.9 0.0
-1.35226 0.95 0.0
-1.28528 0.25 0.0
-1.28764 0.2 0.0
-1.28931 0.35 0.0
-1.32121 0.55 0.0
-1.29848 0.5 0.0
-1.28709 0.45 0.0
-1.2982 0.4 0.0
-1.29876 0.6 0.0
-1.31647 0.65 0.0
-1.29918 0.75 0.0
-1.29904 0.7 0.0
-1.28292 0.3 0.0
-1.24687 0 0.0
-1.24702 0.05 0.0
-1.24717 0.1 0.0
-1.24732 0.15 0.0
-1.29946 0.85 0.0
-1.29932 0.8 0.0
-1.29987 1 0.0
-1.29974 0.95 0.0
-1.30462 0.9 0.0
-1.24762 0.25 0.0
-1.23747 0.2 0.0
-1.24792 0.35 0.0
-1.22807 0.4 0.0
-1.27111 0.55 0.0
-1.24837 0.5 0.0
-1.24822 0.45 0.0
-1.24867 0.6 0.0
-1.26639 0.65 0.0
-1.26167 0.75 0.0
-1.24897 0.7 0.0
-1.23277 0.3 0.0
-1.19667 0 0.0
-1.19683 0.05 0.0
-1.18964 0.15 0.0
-1.19198 0.1 0.0
-1.25695 0.85 0.0
-1.24927 0.8 0.0
-1.25223 0.95 0.0
-1.24987 1 0.0
-1.24957 0.9 0.0
-1.1873 0.2 0.0
-1.18496 0.25 0.0
-1.18028 0.35 0.0
-1.17794 0.4 0.0
-1.1981 0.45 0.0
-1.19842 0.55 0.0
-1.19826 0.5 0.0
-1.19858 0.6 0.0
-1.19874 0.65 0.0
-1.19906 0.75 0.0
-1.1989 0.7 0.0
-1.18262 0.3 0.0
-1.14646 0 0.0
-1.14663 0.05 0.0
-1.1418 0.1 0.0
-1.13713 0.2 0.0
-1.14697 0.15 0.0
-1.20691 0.85 0.0
-1.20926 0.8 0.0
-1.20221 0.95 0.0
-1.19986 1 0.0
-1.20456 0.9 0.0
-1.13997 0.3 0.0
-1.14731 0.25 0.0
-1.13781 0.4 0.0
-1.13014 0.35 0.0
-1.12548 0.45 0.0
-1.14815 0.5 0.0
-1.15962 0.55 0.0
-1.14849 0.6 0.0
-1.15745 0.65 0.0
-1.16155 0.75 0.0
-1.14917 0.8 0.0
-1.14883 0.7 0.0
-1.09625 0 0.0
-1.09661 0.1 0.0
-1.09393 0.05 0.0
-1.09697 0.2 0.0
-1.08929 0.15 0.0
-1.15687 0.85 0.0
-1.14985 1 0.0
-1.15219 0.95 0.0
-1.14951 0.9 0.0
-1.09733 0.3 0.0
-1.08465 0.25 0.0
-1.09769 0.4 0.0
-1.08 0.35 0.0
-1.08661 0.45 0.0
-1.09804 0.5 0.0
-1.12082 0.55 0.0
-1.10916 0.8 0.0
-1.10629 0.7 0.0
-1.0984 0.6 0.0
-1.11616 0.65 0.0
-1.11149 0.75 0.0
-1.04604 0 0.0
-1.04623 0.05 0.0
-1.04642 0.1 0.0
-1.0468 0.2 0.0
-1.03911 0.15 0.0
-1.09948 0.9 0.0
-1.0993 0.85 0.0
-1.09984 1 0.0
-1.09966 0.95 0.0
-1.04718 0.3 0.0
-1.03449 0.25 0.0
-1.04756 0.4 0.0
-1.02986 0.35 0.0
-1.04775 0.45 0.0
-1.04794 0.5 0.0
-1.04813 0.55 0.0
-1.05911 0.8 0.0
-1.04831 0.6 0.0
-1.06376 0.7 0.0
-1.0485 0.65 0.0
-1.04888 0.75 0.0
-0.995833 0 0.0
-0.991231 0.1 0.0
-0.996033 0.05 0.0
-0.986629 0.2 0.0
-0.98893 0.15 0.0
-1.05447 0.9 0.0
-1.04926 0.85 0.0
-1.04983 1 0.0
-1.04964 0.95 0.0
-0.984328 0.25 0.0
-0.99703 0.3 0.0
-0.997429 0.4 0.0
-0.997628 0.45 0.0
-0.979726 0.35 0.0
-0.997827 0.5 0.0
-0.998027 0.55 0.0
-0.998226 0.6 0.0
-0.961416 0.475 0.0
-1.00907 0.8 0.0
-0.998426 0.65 0.0
-0.998625 0.7 0.0
-1.01138 0.75 0.0
-0.945625 0 0.0
-0.946044 0.1 0.0
-0.943334 0.05 0.0
-0.946463 0.2 0.0
-0.938752 0.15 0.0
-1.00444 0.9 0.0
-1.00675 0.85 0.0
-0.999821 1 0.0
-1.00213 0.95 0.0
-0.93417 0.25 0.0
-0.946881 0.3 0.0
-0.9473 0.4 0.0
-0.929588 0.35 0.0
-0.925005 0.45 0.0
-0.960371 0.525 0.0
-0.959325 0.575 0.0
-0.958279 0.625 0.0
-0.922714 0.5 0.0
-0.959017 0.8 0.0
-0.957233 0.675 0.0
-0.952999 0.7125 0.0
-0.948766 0.75 0.0
-0.895417 0 0.0
-0.895855 0.1 0.0
-0.893136 0.05 0.0
-0.896294 0.2 0.0
-0.888573 0.15 0.0
-0.949184 0.85 0.0
-0.954415 0.9 0.0
-0.949812 1 0.0
-0.949603 0.95 0.0
-0.884011 0.25 0.0
-0.896733 0.3 0.0
-0.874887 0.45 0.0
-0.879449 0.35 0.0
-0.897171 0.4 0.0
-0.920423 0.55 0.0
-0.918132 0.6 0.0
-0.915841 0.65 0.0
-0.872606 0.5 0.0
-0.908968 0.8 0.0
-0.91355 0.7 0.0
-0.898707 0.75 0.0
-0.845208 0 0.0
-0.845438 0.05 0.0
-0.845667 0.1 0.0
-0.845896 0.15 0.0
-0.833853 0.25 0.0
-0.846126 0.2 0.0
-0.899146 0.85 0.0
-0.904386 0.9 0.0
-0.899584 0.95 0.0
-0.899804 1 0.0
-0.838062 0.35 0.0
[...]
POINT_DATA 10839
VECTORS Velocity float
0.21 0 0.0
0.24 0 0.0
0.2275 0 0.0
0.2475 0 0.0
0.25 0 0.0
0.2475 0 0.0
0 0 0.0
0.0475 0 0.0
0.1275 0 0.0
0.09 0 0.0
0.09 0 0.0
0.1275 0 0.0
0.1875 0 0.0
0.16 0 0.0
0.195563 -6.68235e-05 0.0
0.242834 -6.17695e-05 0.0
0.215776 -8.14828e-05 0.0
0.231402 -8.18917e-05 0.0
0.248713 -3.60768e-05 0.0
0.24 0 0.0
0.242833 2.67949e-05 0.0
0.248509 -1.37158e-06 0.0
0 0 0.0
0.0622216 -2.96245e-06 0.0
0.0322217 8.53899e-06 0.0
0.16 0 0.0
0.1875 0 0.0
0.21 0 0.0
0.2275 0 0.0
0.1936 4.58554e-05 0.0
0.138895 2.84635e-06 0.0
0 0 0.0
0.0475 0 0.0
0.0998434 -1.16065e-05 0.0
0.0622192 -1.56963e-06 0.0
0.0998503 -1.62631e-06 0.0
0.138896 -1.96319e-05 0.0
0.174402 -9.62132e-05 0.0
0.201621 -0.00016388 0.0
0.235765 -0.000160636 0.0
0.244052 -0.000126432 0.0
0.223588 -0.0002796 0.0
0.249705 -5.42093e-05 0.0
0.248994 4.01361e-06 0.0
0.2314 4.6093e-05 0.0
0.244051 5.92316e-05 0.0
0 0 0.0
0.0360037 7.79678e-05 0.0
0.0735869 9.52694e-05 0.0
0.0621087 0.000235223 0.0
0.174396 5.37488e-05 0.0
0.220163 0.000101199 0.0
0.201618 0.000109903 0.0
0.115574 -3.39602e-05 0.0
0.146721 1.31923e-05 0.0
0 0 0.0
0.0360755 -2.45009e-05 0.0
0.0693536 -6.2229e-05 0.0
0.0900094 -0.000146711 0.0
0.109441 8.03368e-05 0.0
0.146728 -5.313e-05 0.0
0.178975 -0.000198088 0.0
0.206323 -0.000311227 0.0
0.214511 -0.000465571 0.0
0.238459 -0.000266738 0.0
0.247249 -0.000168027 0.0
0.229525 -0.000467074 0.0
0.226308 0.000204754 0.0
0.249875 -3.9519e-05 0.0
0.246337 7.57379e-05 0.0
0.236632 0.000159587 0.0
0 0 0.0
0.0318641 0.000142441 0.0
0.0957858 0.000264266 0.0
0.0691872 0.000364606 0.0
0.17896 0.000125635 0.0
0.206305 0.000223241 0.0
0.12765 -9.95979e-05 0.0
0.166101 0.000157806 0.0
0.152466 4.27828e-05 0.0
0 0 0.0
0.0359871 -8.35014e-05 0.0
0.0620799 -0.000252708 0.0
0.095752 -0.000300392 0.0
0.127682 5.08388e-05 0.0
0.156847 -0.000163759 0.0
0.115934 0.000193565 0.0
0.193793 -0.000553496 0.0
0.218113 -0.000727527 0.0
0.240784 -0.000375525 0.0
0.247537 -0.000239124 0.0
0.249785 -7.31714e-05 0.0
0.234175 -0.000695779 0.0
0.229515 0.000329367 0.0
0.247534 9.25923e-05 0.0
0.240773 0.000239006 0.0
0 0 0.0
0.0337476 0.000154853 0.0
0.103506 0.000260166 0.0
0.0618325 0.000158635 0.0
0.189883 0.000321391 0.0
0.213043 0.000534178 0.0
0.17095 0.000368807 0.0
0.144811 3.62829e-05 0.0
0 0 0.0
0.0395248 -0.000203323 0.0
0.100125 -0.000362454 0.0
0.069129 -0.0003983 0.0
0.171017 -0.000480406 0.0
0.144862 -0.000134108 0.0
0.125186 -0.000141238 0.0
0.184051 -0.00082264 0.0
0.204276 -0.00103557 0.0
0.221883 -0.00112774 0.0
0.248706 6.75517e-05 0.0
0.243682 -0.000508321 0.0
0.248712 -0.0002598 0.0
0.238046 -0.000952752 0.0
0.234149 0.000522147 0.0
0.244474 0.00034776 0.0
0 0 0.0
0.0314238 2.74282e-06 0.0
0.0944907 -0.00012348 0.0
0.0650819 -0.000451038 0.0
0.196984 0.000765126 0.0
0.217833 0.000910141 0.0
0.17818 0.000996649 0.0
0.149541 0.000339891 0.0
0.121063 -0.000113772 0.0
0 0 0.0
0.0337048 -0.00016667 0.0
0.0714953 -0.00017489 0.0
0.153328 -0.000674393 0.0
0.128806 -0.000932678 0.0
0.188112 -0.00138171 0.0
0.21194 -0.0016669 0.0
0.2479 0.000217276 0.0
0.22526 -0.00165297 0.0
0.249049 -0.000242321 0.0
0.245804 -0.000613522 0.0
0.241095 -0.00120427 0.0
0.238016 0.000720612 0.0
0 0 0.0
0.0334662 -0.000288217 0.0
0.101029 -0.00158012 0.0
0.0708031 -0.00177478 0.0
0.206456 0.00138754 0.0
0.222149 0.00141537 0.0
0.190684 0.00207304 0.0
0.169465 0.0017072 0.0
0.144447 0.00122913 0.0
0.125352 0.00049919 0.0
0.0977573 0.000246262 0.0
0 0 0.0
0.0352006 -2.40486e-05 0.0
0.0674606 0.000553062 0.0
0.131842 -0.0024321 0.0
0.169586 -0.00185843 0.0
0.19977 -0.00223143 0.0
0.218006 -0.00231455 0.0
0.241058 0.00091147 0.0
0.2488 -0.000129508 0.0
0.246855 0.000426434 0.0
0.228154 -0.00229894 0.0
0.243259 -0.0014006 0.0
0.247386 -0.000645323 0.0
0.233594 0.00151002 0.0
0 0 0.0
0.0374212 -0.000766337 0.0
0.124392 -0.00445284 0.0
0.0747872 -0.00323141 0.0
0.208415 0.00224583 0.0
0.224373 0.00230936 0.0
0.198413 0.00320612 0.0
0.178844 0.00299678 0.0
0.148185 0.00273338 0.0
0.120714 0.00215756 0.0
0.0980523 0.00114183 0.0
0 0 0.0
0.0347185 0.000315747 0.0
0.0683856 0.00145437 0.0
0.153772 -0.00394587 0.0
0.178968 -0.00334368 0.0
0.20985 -0.00314835 0.0
0.243231 0.00107735 0.0
0.24756 0.000247518 0.0
0.230491 -0.00304964 0.0
0.241778 -0.00194718 0.0
0.246975 -0.000112936 0.0
0.246995 -0.000742958 0.0
0.234309 0.00218692 0.0
0.211839 -0.00497892 0.0
0 0 0.0
0.0408937 -0.00123729 0.0
0.14257 -0.00669126 0.0
0.10468 -0.00676994 0.0
0.0736242 -0.00399468 0.0
0.213122 0.0033427 0.0
0.187219 0.00461752 0.0
0.166416 0.00466858 0.0
0.124236 0.0043681 0.0
0.0949571 0.00306321 0.0
0 0 0.0
0.0359627 0.000674014 0.0
0.0678072 0.00262742 0.0
0.166533 -0.00600944 0.0
0.187344 -0.00515608 0.0
0.158688 -0.00895102 0.0
0.244469 0.00112123 0.0
0.244712 0.000919402 0.0
0.228484 -0.00423194 0.0
0.23721 -0.00320175 0.0
0.24478 -0.00134957 0.0
0.237585 0.00240127 0.0
0.22698 0.00392302 0.0
0.19825 -0.00684567 0.0
0.216048 -0.00642539 0.0
0 0 0.0
0.0412602 -0.00139141 0.0
0.129596 -0.010274 0.0
0.078664 -0.00493355 0.0
0.106856 -0.00858838 0.0
0.206997 0.00575564 0.0
0.189648 0.00655013 0.0
0.168858 0.00722398 0.0
0.142361 0.00649473 0.0
0.0992829 0.00523901 0.0
0 0 0.0
0.0366099 0.000988154 0.0
0.0733009 0.00393029 0.0
0.182407 -0.00928577 0.0
0.159257 -0.011803 0.0
0.240607 0.00234722 0.0
0.243909 0.000504758 0.0
0.231523 -0.00504713 0.0
0.239597 -0.00322149 0.0
0.243679 -0.00131789 0.0
0.23419 0.00402602 0.0
0.21536 0.00693801 0.0
0.200475 -0.00945371 0.0
0.218963 -0.00776187 0.0
0 0 0.0
0.0601024 -0.00285999 0.0
0.132972 -0.012912 0.0
0.103782 -0.00874711 0.0
0.200633 0.00831005 0.0
0.177393 0.00979999 0.0
0.149218 0.0104965 0.0
0.122272 0.00832785 0.0
0.0885141 0.00614047 0.0
0 0 0.0
0.0409259 0.00135735 0.0
0.18494 -0.0127621 0.0
0.159926 -0.0146165 0.0
0.240034 0.00261151 0.0
0.242053 -0.000252337 0.0
0.233149 -0.00568822 0.0
0.238581 -0.00336577 0.0
0.232999 0.00516245 0.0
0.221675 0.00773897 0.0
0.205583 0.0101888 0.0
0.22094 -0.00906093 0.0
0.205131 -0.0115858 0.0
0 0 0.0
0.0655069 -0.00290913 0.0
0.136333 -0.0148324 0.0
0.109349 -0.0093531 0.0
0.184671 0.0123694 0.0
0.159613 0.0136364 0.0
0.0596378 0.00280756 0.0
0.132496 0.0126855 0.0
0.102578 0.0085019 0.0
0 0 0.0
0.183126 -0.0162947 0.0
0.160198 -0.0175141 0.0
0.238154 0.00288561 0.0
0.238869 -0.000307344 0.0
0.230129 -0.00732681 0.0
0.235022 -0.00427367 0.0
0.218732 0.0102076 0.0
0.229957 0.00676741 0.0
0.182715 0.0158883 0.0
0.20292 0.0133445 0.0
0.218382 -0.0111943 0.0
0.202359 -0.0147606 0.0
0 0 0.0
0.0710252 -0.00275353 0.0
0.140916 -0.0156025 0.0
0.116899 -0.00930712 0.0
0.135852 0.0145628 0.0
0.159632 0.0167076 0.0
0.0646799 0.00288306 0.0
0.108723 0.00920045 0.0
0 0 0.0
0.181531 -0.0191319 0.0
0.161535 -0.0192718 0.0
0.234547 0.00374142 0.0
0.234861 -0.000339625 0.0
0.21537 -0.013289 0.0
0.224489 -0.009837 0.0
0.230664 -0.00520069 0.0
0.215718 0.0122849 0.0
0.226037 0.00848687 0.0
0.181395 0.0180601 0.0
0.199816 0.0162365 0.0
0.199327 -0.0175456 0.0
0 0 0.0
0.0760929 -0.0025559 0.0
0.1473 -0.015016 0.0
0.123835 -0.0085672 0.0
0.139503 0.0152643 0.0
0.160598 0.018644 0.0
0.0701715 0.00273271 0.0
0.115414 0.00917311 0.0
0 0 0.0
0.163972 -0.0195229 0.0
0.18054 -0.0208488 0.0
0.230046 0.00458069 0.0
0.229914 -0.00039186 0.0
0.220606 -0.0110255 0.0
0.209758 -0.0159159 0.0
0.225458 -0.00599176 0.0
0.221375 0.010019 0.0
0.212402 0.0140785 0.0
0.180256 0.0199201 0.0
0.196782 0.0182924 0.0
0.196419 -0.0192891 0.0
0 0 0.0
0.0800996 -0.00216002 0.0
0.15241 -0.0137627 0.0
0.130342 -0.0073447 0.0
0.144798 0.0149985 0.0
0.16274 0.0191669 0.0
0 0 0.0
0.122268 0.00842147 0.0
0.0748258 0.00244734 0.0
0.18075 -0.0203945 0.0
0.167306 -0.0183547 0.0
0.206362 -0.0165335 0.0
0.22477 0.0052424 0.0
0.224264 -0.00044122 0.0
0.221055 -0.00636992 0.0
0.216576 -0.011758 0.0
0.216251 0.0109301 0.0
0.208117 0.0154783 0.0
0.179917 0.0200377 0.0
0.194142 0.0189782 0.0
0.194043 -0.0195877 0.0
0 0 0.0
0.0838087 -0.00165147 0.0
0.135465 -0.00606917 0.0
0.158175 -0.0116995 0.0
0.151458 0.013373 0.0
0.165817 0.0181973 0.0
0 0 0.0
0.0792993 0.00204104 0.0
0.12802 0.00737314 0.0
0.181456 -0.0190975 0.0
0.17113 -0.0160816 0.0
0.203204 -0.0162609 0.0
0.209387 -0.0116788 0.0
0.219005 0.00550591 0.0
0.218227 -0.000519234 0.0
0.216528 -0.00646355 0.0
0.211076 0.0109415 0.0
0.204043 0.0156369 0.0
0.180456 0.0189309 0.0
0.192176 0.0180852 0.0
0.192394 -0.0183787 0.0
0 0 0.0
0.0865968 -0.00118943 0.0
0.164324 -0.00897932 0.0
0.140726 -0.0044729 0.0
0.156359 0.0115988 0.0
0.169427 0.0160358 0.0
0.0825778 0.0016172 0.0
0 0 0.0
0.134222 0.0057941 0.0
0.174918 -0.01324 0.0
0.183129 -0.0157047 0.0
0.198892 -0.0141813 0.0
0.204899 -0.0106029 0.0
0.210926 -0.00613463 0.0
0.210652 0.00501911 0.0
0.212317 -0.000587463 0.0
0.206237 0.0100072 0.0
0.199295 0.0138406 0.0
0.181863 0.0156537 0.0
0.190898 0.0158857 0.0
0.191365 -0.0160062 0.0
0 0 0.0
0.0887376 -0.000850629 0.0
0.144288 -0.00328823 0.0
0.178354 -0.010326 0.0
0.168005 -0.00709388 0.0
0.161592 0.00919871 0.0
0.172422 0.0137864 0.0
0.0851979 0.00115181 0.0
0 0 0.0
0.13846 0.00449039 0.0
0.190936 -0.0135758 0.0
0.18443 -0.0133933 0.0
0.201773 -0.00932108 0.0
0.196581 -0.0118337 0.0
0.203849 -0.00512469 0.0
0.206967 -0.000680237 0.0
0.206749 0.0043784 0.0
0.202066 0.008396 0.0
0.197108 0.0119359 0.0
0.183036 0.0132685 0.0
0.17655 0.0101139 0.0
0.190155 0.0129411 0.0
0 0 0.0
0.146785 -0.00238628 0.0
0.0901361 -0.000628259 0.0
0.180801 -0.0081906 0.0
0.172022 -0.00495732 0.0
0.166 0.0068369 0.0
0 0 0.0
0.0870726 0.000748345 0.0
0.142346 0.00305277 0.0
0.190765 -0.0110897 0.0
0.186279 -0.00967926 0.0
0.199222 -0.00797616 0.0
0.194841 -0.00939433 0.0
0.200958 -0.00446898 0.0
0.202539 -0.000777147 0.0
0.203255 0.00359353 0.0
0.178882 0.00784579 0.0
0.189875 0.0102806 0.0
0.198747 0.00647404 0.0
0.1953 0.00977961 0.0
0.18445 0.0100412 0.0
0 0 0.0
0.0909742 -0.000428417 0.0
0.148783 -0.00166869 0.0
0.183215 -0.00601238 0.0
0.174623 -0.00354468 0.0
0.1448 0.00200219 0.0
0.16988 0.00451736 0.0
0 0 0.0
0.0884769 0.00043177 0.0
0.190786 -0.00844829 0.0
0.187663 -0.00721872 0.0
0.196731 -0.0063157 0.0
0.19367 -0.00724775 0.0
0.19849 -0.00385614 0.0
0.199007 -0.000921691 0.0
0.198184 0.00203198 0.0
0.181195 0.00537173 0.0
0.196164 0.00457016 0.0
0.189709 0.00778262 0.0
0.193172 0.00631033 0.0
0.186005 0.00648583 0.0
0 0 0.0
0.150292 -0.001134 0.0
0.0918305 -0.000274283 0.0
0.185378 -0.00408609 0.0
0.176509 -0.002552 0.0
0.146386 0.0012544 0.0
0.172346 0.00292597 0.0
0 0 0.0
0.0890283 0.000288633 0.0
0.188736 -0.00534057 0.0
0.190897 -0.00633999 0.0
0.194956 -0.004955 0.0
0.196124 -0.00319729 0.0
0.192883 -0.00553142 0.0
0.19643 -0.00107719 0.0
0.195808 0.0010625 0.0
0.194302 0.0029129 0.0
0.19503 -0.0020467 0.0
0.182968 0.00343818 0.0
0.192165 0.00414683 0.0
0.189653 0.00460429 0.0
0.186745 0.00473874 0.0
0 0 0.0
0.151221 -0.000875707 0.0
0.0923125 -0.000249525 0.0
0.18651 -0.00321838 0.0
0.177898 -0.00189838 0.0
0.147505 0.000651435 0.0
0.173822 0.00188234 0.0
0 0 0.0
0.089472 0.00011042 0.0
0.189603 -0.00401018 0.0
0.191095 -0.00478884 0.0
0.19371 -0.00394606 0.0
0.1924 -0.00430846 0.0
0.193878 -0.00260259 0.0
0.194795 -0.000371136 0.0
0.193885 0.00116617 0.0
0.192419 0.00233652 0.0
0.193881 -0.00136707 0.0
0.18416 0.0019824 0.0
0.190609 0.00295475 0.0
0.18915 0.00288439 0.0
0.187616 0.00249947 0.0
0 0 0.0
0.151978 -0.00072947 0.0
0.0926983 -0.000211089 0.0
0.187563 -0.00249336 0.0
0.178931 -0.00152157 0.0
0.17512 0.000864104 0.0
0.148154 0.000226208 0.0
0 0 0.0
0.0897475 -2.62868e-05 0.0
0.190291 -0.00314944 0.0
0.191294 -0.00374374 0.0
0.192908 -0.00241958 0.0
0.192122 -0.00350826 0.0
0.192906 -0.00327867 0.0
0.193353 -0.000138433 0.0
0.192369 0.000877983 0.0
0.191072 0.00153343 0.0
0.192808 -0.00159102 0.0
0.184956 0.000938885 0.0
0.189618 0.00173875 0.0
0.188048 0.00122556 0.0
0 0 0.0
0.0929547 -0.000213328 0.0
0.152629 -0.000678453 0.0
0.179631 -0.00135804 0.0
0.190839 -0.00265375 0.0
0.188374 -0.00208552 0.0
0.175763 0.000248753 0.0
0.148444 -4.41821e-05 0.0
0.089621 -5.49272e-05 0.0
0 0 0.0
0.192005 -0.00311413 0.0
0.191519 -0.00311613 0.0
0.1924 -0.00239429 0.0
0.192382 -0.00291419 0.0
0.190635 0.000426986 0.0
0.192352 -0.000754252 0.0
0.191594 -4.54319e-05 0.0
0.192089 -0.00185344 0.0
0.18829 0.000291663 0.0
0.185451 5.80147e-05 0.0
0.189536 0.000325887 0.0
0 0 0.0
0.0934157 -0.000221275 0.0
0.153215 -0.000701257 0.0
0.180298 -0.00128274 0.0
0.191218 -0.00246573 0.0
0.189182 -0.00191664 0.0
0.176039 -0.000183132 0.0
0.148505 -0.000254781 0.0
0.0894815 -0.000109076 0.0
0 0 0.0
0.176208 -0.000509101 0.0
0.191958 -0.00290158 0.0
0.191803 -0.00277084 0.0
0.191976 -0.0027879 0.0
0.192029 -0.00244964 0.0
0.190195 -0.000669718 0.0
0.191045 -0.000776841 0.0
0.191664 -0.00128273 0.0
0.191591 -0.00215752 0.0
0.188397 -0.000405498 0.0
0.185662 -0.000461018 0.0
0.189433 -0.000460174 0.0
0 0 0.0
0.093836 -0.000226642 0.0
0.1538 -0.000777031 0.0
0.180902 -0.00135037 0.0
0.191643 -0.00240397 0.0
0.189743 -0.00195691 0.0
0.0891685 -0.000148988 0.0
0.148411 -0.000401332 0.0
0 0 0.0
0.176091 -0.00072123 0.0
0.191979 -0.00287717 0.0
0.192046 -0.00276851 0.0
0.191844 -0.00291066 0.0
0.1917 -0.00263752 0.0
0.189964 -0.00119883 0.0
0.190634 -0.0013825 0.0
0.191248 -0.00251415 0.0
0.190995 -0.00196912 0.0
0.18836 -0.000817901 0.0
0.185651 -0.00086482 0.0
0.189284 -0.00107672 0.0
0 0 0.0
0.0943662 -0.000276003 0.0
0.154346 -0.000903905 0.0
0.181554 -0.00152042 0.0
0.192137 -0.00257061 0.0
0.192294 -0.00295074 0.0
0.190268 -0.00213652 0.0
0.0889892 -0.000194077 0.0
0.148113 -0.000525328 0.0
0 0 0.0
0.175902 -0.000934203 0.0
0.192078 -0.00310882 0.0
0.19179 -0.0031195 0.0
0.191488 -0.00293509 0.0
0.191045 -0.00282113 0.0
0.189745 -0.00165959 0.0
0.190293 -0.00192539 0.0
0.190668 -0.00243418 0.0
0.185565 -0.00120357 0.0
0.188245 -0.00128223 0.0
0.189081 -0.00159243 0.0
0 0 0.0
0.0948902 -0.000390159 0.0
0.155093 -0.00107596 0.0
0.182216 -0.00178226 0.0
0.192454 -0.00279407 0.0
0.192552 -0.00326727 0.0
0.190811 -0.00241993 0.0
0.0886622 -0.000245373 0.0
0.147783 -0.000628873 0.0
0 0 0.0
0.185309 -0.00143866 0.0
0.147289 -0.000715178 0.0
0.175474 -0.00115384 0.0
0.192204 -0.0034899 0.0
0.191766 -0.00339353 0.0
0.191289 -0.00354202 0.0
0.190884 -0.00315778 0.0
0.190452 -0.00281138 0.0
0.189477 -0.00216616 0.0
0.189888 -0.00263938 0.0
0.187961 -0.00177421 0.0
0.188879 -0.00199625 0.0
0.192334 -0.00388134 0.0
0 0 0.0
0.0955673 -0.000462064 0.0
0.182967 -0.00211576 0.0
0.155921 -0.00131633 0.0
0.19285 -0.00375196 0.0
0.192974 -0.00331599 0.0
0.191357 -0.00282538 0.0
0.0883204 -0.000269561 0.0
0 0 0.0
0.187753 -0.00206098 0.0
0.185009 -0.00172306 0.0
0.175131 -0.00135022 0.0
0.0877044 -0.000254723 0.0
0.146862 -0.00081987 0.0
0.191781 -0.00387627 0.0
0.191211 -0.00395796 0.0
0.19068 -0.00367569 0.0
0.190541 -0.00412484 0.0
0.190245 -0.00320759 0.0
0.189174 -0.00266312 0.0
0.189582 -0.00316362 0.0
0.188616 -0.00237079 0.0
0.192446 -0.00436834 0.0
0.0962948 -0.000571471 0.0
0 0 0.0
0.183591 -0.0024612 0.0
0.156832 -0.00159494 0.0
0.193153 -0.00437205 0.0
0.193325 -0.00374505 0.0
0.191991 -0.00335015 0.0
0 0 0.0
0.18737 -0.00242528 0.0
0.184448 -0.00206259 0.0
0.174597 -0.00150818 0.0
0.0872985 -0.000295802 0.0
0.146216 -0.000927919 0.0
0.191806 -0.00475909 0.0
0.191143 -0.00442823 0.0
0.190382 -0.00461301 0.0
0.189867 -0.004019 0.0
0.188841 -0.00316073 0.0
0.189268 -0.00371886 0.0
0.188149 -0.00295649 0.0
0.192634 -0.00511141 0.0
0 0 0.0
0.0973954 -0.000685121 0.0
0.184482 -0.00298128 0.0
0.157864 -0.00192 0.0
0.192654 -0.00400916 0.0
0.193491 -0.00515778 0.0
0.193946 -0.00461661 0.0
0 0 0.0
0 0 0.0
0.18691 -0.0028129 0.0
0.183993 -0.00237045 0.0
0.174057 -0.00170903 0.0
0.145531 -0.0010401 0.0
0.0867583 -0.00035547 0.0
0.191822 -0.00555411 0.0
0.191025 -0.00515522 0.0
0.188979 -0.00419397 0.0
0.190154 -0.00535187 0.0
0.189556 -0.00468046 0.0
0.188448 -0.00369359 0.0
0.18769 -0.00342483 0.0
0.191815 -0.00630713 0.0
0.192778 -0.00601685 0.0
0.0987358 -0.000836082 0.0
0.159139 -0.00233072 0.0
0.185556 -0.00364158 0.0
0.193331 -0.00466087 0.0
0.193849 -0.00610576 0.0
0.194358 -0.00532146 0.0
0 0 0.0
0 0 0.0
0.183432 -0.00261368 0.0
0.186196 -0.0033107 0.0
0.144773 -0.00114382 0.0
0.173203 -0.00195319 0.0
0.0861168 -0.000388511 0.0
0.190824 -0.00639431 0.0
0.189857 -0.00621012 0.0
0.18717 -0.00392765 0.0
0.188647 -0.00470185 0.0
0.189289 -0.0052487 0.0
0.187811 -0.00447106 0.0
0.19179 -0.00713171 0.0
0.193003 -0.00753191 0.0
0.194205 -0.00728487 0.0
0.100277 -0.00108848 0.0
0.160829 -0.00288293 0.0
0.186964 -0.00465635 0.0
0.194183 -0.00561625 0.0
0.195106 -0.00670548 0.0
0 0 0.0
0 0 0.0
0.182576 -0.00300277 0.0
0.185547 -0.00375468 0.0
0.143873 -0.00127896 0.0
0.172378 -0.00217999 0.0
0.0854011 -0.000422017 0.0
0.188976 -0.0058672 0.0
0.189491 -0.00716653 0.0
0.19057 -0.00746434 0.0
0.18655 -0.00446229 0.0
0.188176 -0.00540689 0.0
0.187234 -0.00512348 0.0
0.184788 -0.0042237 0.0
0.191618 -0.00888786 0.0
0 0 0.0
0.19305 -0.00895419 0.0
0.195763 -0.00810229 0.0
0.194533 -0.00867493 0.0
0.102177 -0.00135929 0.0
0.188341 -0.00558859 0.0
0.163112 -0.00374139 0.0
0.195382 -0.00718695 0.0
0 0 0.0
0 0 0.0
0 0 0.0
0 0 0.0
0 0 0.0
0.084679 -0.000455461 0.0
0.17153 -0.0024252 0.0
0.181767 -0.00335741 0.0
0.143042 -0.00139009 0.0
0.188489 -0.00673191 0.0
0.18901 -0.00826065 0.0
0.190256 -0.0086776 0.0
0.186678 -0.00567787 0.0
0.18581 -0.00504163 0.0
0.187341 -0.00650968 0.0
0.185107 -0.00556285 0.0
0.184102 -0.00458614 0.0
0.191332 -0.010419 0.0
0.193038 -0.0105507 0.0
0 0 0.0
-0.000508746 0.000278454 0.0
0 0 0.0
-0.000685097 0.00742161 0.0
0.194836 -0.0103945 0.0
0.196285 -0.00935991 0.0
0.104783 -0.00176281 0.0
0.190063 -0.00692371 0.0
0.16566 -0.00479908 0.0
0.196589 -0.00890709 0.0
0 0 0.0
0 0 0.0
0 0 0.0
-0.000545563 0.00551317 0.0
-0.000467984 0.00161276 0.0
-0.00133625 0.00139822 0.0
0 0 0.0
0.0838385 -0.000495458 0.0
0.170604 -0.00263132 0.0
0.18081 -0.0037301 0.0
0.141823 -0.00153798 0.0
0.187898 -0.00770947 0.0
0.188393 -0.00948426 0.0
0.189792 -0.0100471 0.0
0.186037 -0.00628429 0.0
0.186756 -0.00722223 0.0
0.184294 -0.00610206 0.0
0.182839 -0.00522851 0.0
0.190918 -0.0121359 0.0
0.192398 -0.0122689 0.0
0.193958 -0.0121931 0.0
0 0 0.0
-0.00165473 0.000516959 0.0
0 0 0.0
0 0 0.0
-0.00229682 0.0120414 0.0
-0.00219733 0.00939973 0.0
0.195497 -0.0120099 0.0
0.196931 -0.0114248 0.0
0.168422 -0.00605647 0.0
0.107863 -0.00233331 0.0
0.192128 -0.00871765 0.0
0.197794 -0.0110794 0.0
0 0 0.0
-0.0014788 0.00465952 0.0
-0.00181132 0.00691399 0.0
-0.00192461 0.00318983 0.0
-0.00315174 0.00194393 0.0
0 0 0.0
0.082934 -0.000537549 0.0
0.169465 -0.00288424 0.0
0.179704 -0.00410675 0.0
0.140636 -0.0016749 0.0
0.187162 -0.00878002 0.0
0.187609 -0.0108218 0.0
0.189149 -0.0115896 0.0
0.184812 -0.00735414 0.0
0.18608 -0.00796264 0.0
0.183201 -0.00677926 0.0
0.178564 -0.00451099 0.0
0.181697 -0.00576743 0.0
0.190409 -0.0136741 0.0
0.192637 -0.0139167 0.0
0.195039 -0.0141736 0.0
0 0 0.0
-0.00342686 0.000619265 0.0
0 0 0.0
0 0 0.0
0 0 0.0
0 0 0.0
-0.0039675 0.0082637 0.0
-0.000909976 0.0114667 0.0
-0.0025676 0.0144532 0.0
-0.00501646 0.014408 0.0
-0.00406962 0.0114471 0.0
0 0 0.0
-0.000789278 0.0205432 0.0
0.197556 -0.0147087 0.0
0.198825 -0.0132385 0.0
0 0 0.0
0.112369 -0.00327485 0.0
0.172284 -0.00781151 0.0
0.194966 -0.0117536 0.0
0 0 0.0
0 0 0.0
-0.00346041 0.00594526 0.0
-0.00404698 0.00384486 0.0
-0.00520927 0.00196379 0.0
0 0 0.0
0.0818976 -0.000580089 0.0
0.168014 -0.00318155 0.0
0.139297 -0.00180725 0.0
0.177432 -0.00481195 0.0
0.186259 -0.00994365 0.0
0.186879 -0.0119073 0.0
0.188297 -0.0133135 0.0
0.183897 -0.00804179 0.0
0.185088 -0.00895096 0.0
0.181966 -0.00747029 0.0
0.18069 -0.00616312 0.0
0.193559 -0.0157063 0.0
0.189716 -0.0153608 0.0
0.191818 -0.0172218 0.0
0.194723 -0.0178342 0.0
0.197845 -0.0181563 0.0
0 0 0.0
-0.00462261 0.00051873 0.0
-0.00103005 0.0192191 0.0
-0.00355599 0.0257352 0.0
-0.00108174 0.0143315 0.0
-0.00565077 0.00906294 0.0
-0.00684295 0.00606222 0.0
-0.00353928 0.0190506 0.0
-0.00617829 0.0178456 0.0
-0.00746744 0.0130618 0.0