# vtk DataFile Version 3.0
Mesh NS-CD Problem
ASCII
DATASET UNSTRUCTURED_GRID
POINTS 10839 float
-2 0.3 0.0
-2 0.4 0.0
-2 0.35 0.0
-2 0.45 0.0
-2 0.5 0.0
-2 0.55 0.0
-2 0 0.0
-2 0.05 0.0
-2 0.85 0.0
-2 0.9 0.0
-2 0.1 0.0
-2 0.15 0.0
-2 0.25 0.0
-2 0.2 0.0
-1.96653 0.266667 0.0
-1.96524 0.415385 0.0
-1.96485 0.315 0.0
-1.96348 0.363636 0.0
-1.96414 0.464286 0.0
-2 0.6 0.0
-1.96538 0.584615 0.0
-1.96538 0.538462 0.0
-1.94979 0 0.0
-1.96653 0.0666666 0.0
-1.93306 0.0333333 0.0
-2 0.8 0.0
-2 0.75 0.0
-2 0.7 0.0
-2 0.65 0.0
-1.96249 0.7375 0.0
-1.96666 0.833333 0.0
-2 1 0.0
-2 0.95 0.0
-1.96249 0.8875 0.0
-1.96666 0.933333 0.0
-1.96234 0.1125 0.0
-1.96653 0.166667 0.0
-1.93724 0.225 0.0
-1.92971 0.28 0.0
-1.93048 0.380769 0.0
-1.93048 0.423077 0.0
-1.89958 0.3375 0.0
-1.9292 0.484203 0.0
-1.92117 0.530907 0.0
-1.96363 0.636364 0.0
-1.93076 0.576923 0.0
-1.89958 0 0.0
-1.88703 0.0375 0.0
-1.90963 0.08 0.0
-1.86611 0.0666666 0.0
-1.93749 0.775 0.0
-1.93635 0.672727 0.0
-1.92999 0.72 0.0
-1.93332 0.866667 0.0
-1.92856 0.821429 0.0
-1.94999 1 0.0
-1.92499 0.9625 0.0
-1.92499 0.925 0.0
-1.89998 0.9 0.0
-1.89958 0.125 0.0
-1.92827 0.178571 0.0
-1.89958 0.233333 0.0
-1.89045 0.290909 0.0
-1.86096 0.311538 0.0
-1.89241 0.392857 0.0
-1.89334 0.448489 0.0
-1.85655 0.357143 0.0
-1.89614 0.653846 0.0
-1.89427 0.504121 0.0
-1.8952 0.559753 0.0
-1.89614 0.615385 0.0
-1.84937 0 0.0
-1.83264 0.0333333 0.0
-1.85655 0.107143 0.0
-1.81172 0.075 0.0
-1.89998 0.766667 0.0
-1.89089 0.709091 0.0
-1.87498 0.85 0.0
-1.85998 0.79 0.0
-1.88748 0.8125 0.0
-1.89998 1 0.0
-1.88748 0.9625 0.0
-1.86664 0.933333 0.0
-1.85712 0.892857 0.0
-1.87448 0.15 0.0
-1.86611 0.194444 0.0
-1.83264 0.133333 0.0
-1.83264 0.2625 0.0
-1.82068 0.321429 0.0
-1.85664 0.404762 0.0
-1.85674 0.452381 0.0
-1.85683 0.5 0.0
-1.81184 0.375 0.0
-1.85712 0.642857 0.0
-1.85693 0.547619 0.0
-1.85702 0.595238 0.0
-1.79917 0 0.0
-1.78482 0.0357143 0.0
-1.79917 0.116667 0.0
-1.76569 0.0666666 0.0
-1.85452 0.745455 0.0
-1.82689 0.692308 0.0
-1.81815 0.781818 0.0
-1.82497 0.825 0.0
-1.84997 1 0.0
-1.8333 0.958333 0.0
-1.81247 0.8875 0.0
-1.81247 0.925 0.0
-1.81742 0.218182 0.0
-1.82427 0.175 0.0
-1.77634 0.145455 0.0
-1.79144 0.242308 0.0
-1.78482 0.285714 0.0
-1.77469 0.332653 0.0
-1.81215 0.529762 0.0
-1.81194 0.422619 0.0
-1.81203 0.470238 0.0
-1.76714 0.392857 0.0
-1.81234 0.625 0.0
-1.79732 0.571429 0.0
-1.74896 0 0.0
-1.73222 0.0333333 0.0
-1.75398 0.105 0.0
-1.71883 0.07 0.0
-1.79227 0.730769 0.0
-1.78007 0.679121 0.0
-1.75765 0.769231 0.0
-1.78178 0.818182 0.0
-1.78996 0.86 0.0
-1.79996 1 0.0
-1.78568 0.964286 0.0
-1.76663 0.922222 0.0
-1.76569 0.1875 0.0
-1.73222 0.15 0.0
-1.74896 0.25 0.0
-1.73714 0.304762 0.0
-1.76743 0.537202 0.0
-1.72869 0.343878 0.0
-1.76732 0.485119 0.0
-1.76723 0.440476 0.0
-1.72243 0.410714 0.0
-1.76757 0.607143 0.0
-1.69875 0 0.0
-1.68369 0.035 0.0
-1.69875 0.1125 0.0
-1.66528 0.075 0.0
-1.74341 0.708974 0.0
-1.73324 0.665934 0.0
-1.70441 0.74478 0.0
-1.71423 0.785714 0.0
-1.72303 0.826923 0.0
-1.74541 0.854545 0.0
-1.74541 0.890909 0.0
-1.74996 1 0.0
-1.73745 0.9625 0.0
-1.71359 0.927273 0.0
-1.68716 0.153846 0.0
-1.7131 0.214286 0.0
-1.70725 0.275 0.0
-1.69712 0.321939 0.0
-1.72279 0.589286 0.0
-1.72261 0.5 0.0
-1.7227 0.544643 0.0
-1.6827 0.355102 0.0
-1.67773 0.428571 0.0
-1.70763 0.464286 0.0
-1.70369 0.62449 0.0
-1.64854 0 0.0
-1.63181 0.0375 0.0
-1.64137 0.142857 0.0
-1.61764 0.0769231 0.0
-1.69458 0.703846 0.0
-1.67471 0.657437 0.0
-1.66143 0.727637 0.0
-1.67125 0.768571 0.0
-1.67851 0.821429 0.0
-1.68841 0.861538 0.0
-1.70904 0.890909 0.0
-1.69995 1 0.0
-1.68176 0.963636 0.0
-1.67267 0.927273 0.0
-1.65427 0.187143 0.0
-1.66718 0.231429 0.0
-1.66554 0.3 0.0
-1.67802 0.571429 0.0
-1.67792 0.523809 0.0
-1.6367 0.366327 0.0
-1.63682 0.423469 0.0
-1.62568 0.502976 0.0
-1.6629 0.470238 0.0
-1.65254 0.618367 0.0
-1.6059 0.307143 0.0
-1.59833 0 0.0
-1.58288 0.0384615 0.0
-1.60563 0.169643 0.0
-1.58179 0.112271 0.0
-1.56964 0.0714286 0.0
-1.64574 0.690385 0.0
-1.62827 0.751429 0.0
-1.63371 0.791071 0.0
-1.64279 0.857143 0.0
-1.65378 0.896154 0.0
-1.64994 1 0.0
-1.6363 0.963636 0.0
-1.61916 0.930769 0.0
-1.61345 0.209107 0.0
-1.62126 0.248571 0.0
-1.56989 0.196429 0.0
-1.63324 0.553571 0.0
-1.58846 0.535714 0.0
-1.59408 0.361905 0.0
-1.59161 0.402211 0.0
-1.58832 0.464286 0.0
-1.61504 0.598581 0.0
-1.59683 0.64359 0.0
-1.57899 0.274107 0.0
-1.56176 0.322381 0.0
-1.54812 0 0.0
-1.53378 0.0357143 0.0
-1.54593 0.147619 0.0
-1.53385 0.0732143 0.0
-1.53393 0.110714 0.0
-1.58522 0.704286 0.0
-1.58709 0.745 0.0
-1.58896 0.785714 0.0
-1.60695 0.830357 0.0
-1.60707 0.892857 0.0
-1.59993 1 0.0
-1.58454 0.965385 0.0
-1.57135 0.928571 0.0
-1.55209 0.241071 0.0
-1.5291 0.198214 0.0
-1.56936 0.570918 0.0
-1.54369 0.517857 0.0
-1.5464 0.380952 0.0
-1.54564 0.427721 0.0
-1.54488 0.47449 0.0
-1.55026 0.606122 0.0
-1.54222 0.677143 0.0
-1.52943 0.282857 0.0
-1.52143 0.33619 0.0
-1.49792 0 0.0
-1.49802 0.05 0.0
-1.49822 0.15 0.0
-1.49312 0.1 0.0
-1.5423 0.717143 0.0
-1.54419 0.767857 0.0
-1.54727 0.819048 0.0
-1.57122 0.861905 0.0
-1.53553 0.914286 0.0
-1.54992 1 0.0
-1.53563 0.964286 0.0
-1.49842 0.25 0.0
-1.48831 0.2 0.0
-1.5214 0.558929 0.0
-1.49891 0.5 0.0
-1.49871 0.4 0.0
-1.47631 0.45 0.0
-1.49911 0.6 0.0
-1.49921 0.65 0.0
-1.49931 0.7 0.0
-1.48111 0.35 0.0
-1.48351 0.3 0.0
-1.44771 0 0.0
-1.44782 0.05 0.0
-1.44804 0.15 0.0
-1.44793 0.1 0.0
-1.49941 0.75 0.0
-1.49951 0.8 0.0
-1.49981 0.95 0.0
-1.49961 0.85 0.0
-1.49971 0.9 0.0
-1.49991 1 0.0
-1.44826 0.25 0.0
-1.43815 0.2 0.0
-1.47151 0.55 0.0
-1.44881 0.5 0.0
-1.44859 0.4 0.0
-1.42619 0.45 0.0
-1.44913 0.65 0.0
-1.44902 0.6 0.0
-1.44935 0.75 0.0
-1.44924 0.7 0.0
-1.43972 0.35 0.0
-1.43336 0.3 0.0
-1.3975 0 0.0
-1.39762 0.05 0.0
-1.39786 0.15 0.0
-1.39274 0.1 0.0
-1.44957 0.85 0.0
-1.44946 0.8 0.0
-1.4523 0.95 0.0
-1.44968 0.9 0.0
-1.4499 1 0.0
-1.3981 0.25 0.0
-1.38798 0.2 0.0
-1.42141 0.55 0.0
-1.3987 0.5 0.0
-1.39834 0.35 0.0
-1.37845 0.4 0.0
-1.37607 0.45 0.0
-1.40784 0.65 0.0
-1.39894 0.6 0.0
-1.41185 0.75 0.0
-1.39918 0.7 0.0
-1.38322 0.3 0.0
-1.34729 0 0.0
-1.34492 0.05 0.0
-1.34018 0.15 0.0
-1.34255 0.1 0.0
-1.40707 0.85 0.0
-1.39941 0.8 0.0
-1.39977 0.95 0.0
-1.39965 0.9 0.0
-1.39989 1 0.0
-1.33781 0.2 0.0
-1.33544 0.25 0.0
-1.37131 0.55 0.0
-1.34859 0.5 0.0
-1.33833 0.4 0.0
-1.3307 0.35 0.0
-1.32595 0.45 0.0
-1.34885 0.6 0.0
-1.36655 0.65 0.0
-1.36179 0.75 0.0
-1.34911 0.7 0.0
-1.33307 0.3 0.0
-1.29708 0 0.0
-1.29722 0.05 0.0
-1.2975 0.15 0.0
-1.29236 0.1 0.0
-1.35703 0.85 0.0
-1.34937 0.8 0.0
-1.34988 1 0.0
-1.34962 0.9 0.0
-1.35226 0.95 0.0
-1.28528 0.25 0.0
-1.28764 0.2 0.0
-1.28931 0.35 0.0
-1.32121 0.55 0.0
-1.29848 0.5 0.0
-1.28709 0.45 0.0
-1.2982 0.4 0.0
-1.29876 0.6 0.0
-1.31647 0.65 0.0
-1.29918 0.75 0.0
-1.29904 0.7 0.0
-1.28292 0.3 0.0
-1.24687 0 0.0
-1.24702 0.05 0.0
-1.24717 0.1 0.0
-1.24732 0.15 0.0
-1.29946 0.85 0.0
-1.29932 0.8 0.0
-1.29987 1 0.0
-1.29974 0.95 0.0
-1.30462 0.9 0.0
-1.24762 0.25 0.0
-1.23747 0.2 0.0
-1.24792 0.35 0.0
-1.22807 0.4 0.0
-1.27111 0.55 0.0
-1.24837 0.5 0.0
-1.24822 0.45 0.0
-1.24867 0.6 0.0
-1.26639 0.65 0.0
-1.26167 0.75 0.0
-1.24897 0.7 0.0
-1.23277 0.3 0.0
-1.19667 0 0.0
-1.19683 0.05 0.0
-1.18964 0.15 0.0
-1.19198 0.1 0.0
-1.25695 0.85 0.0
-1.24927 0.8 0.0
-1.25223 0.95 0.0
-1.24987 1 0.0
-1.24957 0.9 0.0
-1.1873 0.2 0.0
-1.18496 0.25 0.0
-1.18028 0.35 0.0
-1.17794 0.4 0.0
-1.1981 0.45 0.0
-1.19842 0.55 0.0
-1.19826 0.5 0.0
-1.19858 0.6 0.0
-1.19874 0.65 0.0
-1.19906 0.75 0.0
-1.1989 0.7 0.0
-1.18262 0.3 0.0
-1.14646 0 0.0
-1.14663 0.05 0.0
-1.1418 0.1 0.0
-1.13713 0.2 0.0
-1.14697 0.15 0.0
-1.20691 0.85 0.0
-1.20926 0.8 0.0
-1.20221 0.95 0.0
-1.19986 1 0.0
-1.20456 0.9 0.0
-1.13997 0.3 0.0
-1.14731 0.25 0.0
-1.13781 0.4 0.0
-1.13014 0.35 0.0
-1.12548 0.45 0.0
-1.14815 0.5 0.0
-1.15962 0.55 0.0
-1.14849 0.6 0.0
-1.15745 0.65 0.0
-1.16155 0.75 0.0
-1.14917 0.8 0.0
-1.14883 0.7 0.0
-1.09625 0 0.0
-1.09661 0.1 0.0
-1.09393 0.05 0.0
-1.09697 0.2 0.0
-1.08929 0.15 0.0
-1.15687 0.85 0.0
-1.14985 1 0.0
-1.15219 0.95 0.0
-1.14951 0.9 0.0
-1.09733 0.3 0.0
-1.08465 0.25 0.0
-1.09769 0.4 0.0
-1.08 0.35 0.0
-1.08661 0.45 0.0
-1.09804 0.5 0.0
-1.12082 0.55 0.0
-1.10916 0.8 0.0
-1.10629 0.7 0.0
-1.0984 0.6 0.0
-1.11616 0.65 0.0
-1.11149 0.75 0.0
-1.04604 0 0.0
-1.04623 0.05 0.0
-1.04642 0.1 0.0
-1.0468 0.2 0.0
-1.03911 0.15 0.0
-1.09948 0.9 0.0
-1.0993 0.85 0.0
-1.09984 1 0.0
-1.09966 0.95 0.0
-1.04718 0.3 0.0
-1.03449 0.25 0.0
-1.04756 0.4 0.0
-1.02986 0.35 0.0
-1.04775 0.45 0.0
-1.04794 0.5 0.0
-1.04813 0.55 0.0
-1.05911 0.8 0.0
-1.04831 0.6 0.0
-1.06376 0.7 0.0
-1.0485 0.65 0.0
-1.04888 0.75 0.0
-0.995833 0 0.0
-0.991231 0.1 0.0
-0.996033 0.05 0.0
-0.986629 0.2 0.0
-0.98893 0.15 0.0
-1.05447 0.9 0.0
-1.04926 0.85 0.0
-1.04983 1 0.0
-1.04964 0.95 0.0
-0.984328 0.25 0.0
-0.99703 0.3 0.0
-0.997429 0.4 0.0
-0.997628 0.45 0.0
-0.979726 0.35 0.0
-0.997827 0.5 0.0
-0.998027 0.55 0.0
-0.998226 0.6 0.0
-0.961416 0.475 0.0
-1.00907 0.8 0.0
-0.998426 0.65 0.0
-0.998625 0.7 0.0
-1.01138 0.75 0.0
-0.945625 0 0.0
-0.946044 0.1 0.0
-0.943334 0.05 0.0
-0.946463 0.2 0.0
-0.938752 0.15 0.0
-1.00444 0.9 0.0
-1.00675 0.85 0.0
-0.999821 1 0.0
-1.00213 0.95 0.0
-0.93417 0.25 0.0
-0.946881 0.3 0.0
-0.9473 0.4 0.0
-0.929588 0.35 0.0
-0.925005 0.45 0.0
-0.960371 0.525 0.0
-0.959325 0.575 0.0
-0.958279 0.625 0.0
-0.922714 0.5 0.0
-0.959017 0.8 0.0
-0.957233 0.675 0.0
-0.952999 0.7125 0.0
-0.948766 0.75 0.0
-0.895417 0 0.0
-0.895855 0.1 0.0
-0.893136 0.05 0.0
-0.896294 0.2 0.0
-0.888573 0.15 0.0
-0.949184 0.85 0.0
-0.954415 0.9 0.0
-0.949812 1 0.0
-0.949603 0.95 0.0
-0.884011 0.25 0.0
-0.896733 0.3 0.0
-0.874887 0.45 0.0
-0.879449 0.35 0.0
-0.897171 0.4 0.0
-0.920423 0.55 0.0
-0.918132 0.6 0.0
-0.915841 0.65 0.0
-0.872606 0.5 0.0
-0.908968 0.8 0.0
-0.91355 0.7 0.0
-0.898707 0.75 0.0
-0.845208 0 0.0
-0.845438 0.05 0.0
-0.845667 0.1 0.0
-0.845896 0.15 0.0
-0.833853 0.25 0.0
-0.846126 0.2 0.0
-0.899146 0.85 0.0
-0.904386 0.9 0.0
-0.899584 0.95 0.0
-0.899804 1 0.0
-0.838062 0.35 0.0
[...]
POINT_DATA 10839
VECTORS Velocity float
0.21 0 0.0
0.24 0 0.0
0.2275 0 0.0
0.2475 0 0.0
0.25 0 0.0
0.2475 0 0.0
0 0 0.0
0.0475 0 0.0
0.1275 0 0.0
0.09 0 0.0
0.09 0 0.0
0.1275 0 0.0
0.1875 0 0.0
0.16 0 0.0
0.195557 -2.3447e-05 0.0
0.24284 -2.78828e-05 0.0
0.215776 -2.76405e-05 0.0
0.231405 -2.98699e-05 0.0
0.248723 -2.62393e-05 0.0
0.24 0 0.0
0.242839 -1.7641e-05 0.0
0.248519 -2.14119e-05 0.0
0 0 0.0
0.0622237 -3.98113e-06 0.0
0.0322269 -2.95087e-06 0.0
0.16 0 0.0
0.1875 0 0.0
0.21 0 0.0
0.2275 0 0.0
0.193593 -1.16609e-05 0.0
0.138888 -7.57073e-06 0.0
0 0 0.0
0.0475 0 0.0
0.0998426 -5.64778e-06 0.0
0.0622213 -2.36374e-06 0.0
0.099846 -1.00126e-05 0.0
0.138891 -1.41446e-05 0.0
0.17438 -3.72732e-05 0.0
0.201605 -5.21154e-05 0.0
0.235784 -5.8311e-05 0.0
0.24408 -5.62453e-05 0.0
0.223598 -8.50327e-05 0.0
0.249745 -4.9714e-05 0.0
0.249038 -4.78055e-05 0.0
0.231404 -1.55338e-05 0.0
0.244078 -3.43342e-05 0.0
0 0 0.0
0.0361083 -5.76752e-06 0.0
0.0736114 -1.45879e-05 0.0
0.0622462 -1.48038e-05 0.0
0.174374 -1.58718e-05 0.0
0.220163 -2.13057e-05 0.0
0.201598 -2.01245e-05 0.0
0.115552 -1.1367e-05 0.0
0.146681 -1.5923e-05 0.0
0 0 0.0
0.0360905 -1.55879e-06 0.0
0.0693702 -5.62703e-06 0.0
0.0899913 -1.15451e-05 0.0
0.10939 -2.92164e-05 0.0
0.146692 -3.27128e-05 0.0
0.178904 -6.51834e-05 0.0
0.206292 -8.72308e-05 0.0
0.214497 -0.000121453 0.0
0.238517 -9.25775e-05 0.0
0.247337 -8.38906e-05 0.0
0.229594 -0.000131337 0.0
0.226324 -3.28107e-05 0.0
0.24997 -6.91923e-05 0.0
0.246417 -5.41061e-05 0.0
0.236677 -4.11549e-05 0.0
0 0 0.0
0.0322487 -4.27027e-06 0.0
0.0956932 -2.99753e-05 0.0
0.0694179 -1.07278e-05 0.0
0.178886 -2.30554e-05 0.0
0.206275 -2.75149e-05 0.0
0.127492 -2.26895e-05 0.0
0.165896 -2.74198e-05 0.0
0.152339 -2.36072e-05 0.0
0 0 0.0
0.0360872 -2.01072e-06 0.0
0.0622079 -8.71935e-06 0.0
0.0956467 -2.07588e-05 0.0
0.127525 -4.51301e-05 0.0
0.156665 -7.12547e-05 0.0
0.115602 -4.51469e-05 0.0
0.193632 -0.000132582 0.0
0.218132 -0.000171004 0.0
0.24092 -0.000126798 0.0
0.247713 -0.000114281 0.0
0.249975 -9.55814e-05 0.0
0.234368 -0.000184943 0.0
0.229575 -4.01738e-05 0.0
0.247706 -7.48785e-05 0.0
0.240906 -5.53174e-05 0.0
0 0 0.0
0.0344706 1.70194e-06 0.0
0.103121 -2.96165e-05 0.0
0.0622699 1.24451e-05 0.0
0.189747 -2.66857e-05 0.0
0.213004 -2.7737e-05 0.0
0.170578 -2.81837e-05 0.0
0.144369 -3.27873e-05 0.0
0 0 0.0
0.0399127 -6.8841e-06 0.0
0.0998191 -3.90632e-05 0.0
0.0693419 -2.66862e-05 0.0
0.17064 -0.00011823 0.0
0.144432 -7.80723e-05 0.0
0.124399 -5.47025e-05 0.0
0.183671 -0.000164191 0.0
0.204137 -0.000207692 0.0
0.222015 -0.000242545 0.0
0.249063 -0.00010466 0.0
0.243983 -0.00017048 0.0
0.24907 -0.000144177 0.0
0.238488 -0.000245202 0.0
0.234339 -4.43006e-05 0.0
0.244841 -7.68718e-05 0.0
0 0 0.0
0.0322313 1.527e-05 0.0
0.0940717 3.76077e-06 0.0
0.0651448 4.87279e-05 0.0
0.196741 -1.48555e-05 0.0
0.217887 -1.25517e-05 0.0
0.177533 -9.55545e-06 0.0
0.148768 -4.03344e-05 0.0
0.120388 -5.05605e-05 0.0
0 0 0.0
0.0344012 -1.3708e-05 0.0
0.0716686 -5.95135e-05 0.0
0.152467 -0.000121251 0.0
0.12768 -5.78576e-05 0.0
0.187618 -0.000229376 0.0
0.211947 -0.000304978 0.0
0.248524 -0.000110986 0.0
0.225636 -0.000334395 0.0
0.249693 -0.000169506 0.0
0.246391 -0.000212779 0.0
0.241945 -0.000310128 0.0
0.238449 -4.49773e-05 0.0
0 0 0.0
0.0337279 3.46299e-05 0.0
0.100027 3.59383e-05 0.0
0.0694187 8.75864e-05 0.0
0.206318 2.11767e-05 0.0
0.222411 2.25112e-05 0.0
0.190121 5.70225e-05 0.0
0.168432 3.40449e-06 0.0
0.143176 -5.60952e-05 0.0
0.124309 -7.72134e-05 0.0
0.0971558 -9.25423e-05 0.0
0 0 0.0
0.0360039 -3.2316e-05 0.0
0.0673176 -0.000105391 0.0
0.130484 -7.42933e-05 0.0
0.168583 -0.00022431 0.0
0.199514 -0.000348992 0.0
0.218347 -0.00041389 0.0
0.241898 -4.43023e-05 0.0
0.249852 -0.000181757 0.0
0.247856 -0.000108027 0.0
0.228982 -0.000450778 0.0
0.244725 -0.000373161 0.0
0.24857 -0.000257305 0.0
0.234379 2.39973e-05 0.0
0 0 0.0
0.0359546 5.08232e-05 0.0
0.122906 -6.93201e-05 0.0
0.0710698 7.84692e-05 0.0
0.208429 9.19806e-05 0.0
0.225105 0.000108327 0.0
0.198221 0.000159814 0.0
0.17798 8.73003e-05 0.0
0.146822 -3.36291e-05 0.0
0.119356 -0.000120305 0.0
0.0971596 -0.000132205 0.0
0 0 0.0
0.0348455 -5.41504e-05 0.0
0.0672525 -0.000142894 0.0
0.152556 -0.000243396 0.0
0.178177 -0.000375541 0.0
0.210124 -0.000504265 0.0
0.244676 -4.20325e-05 0.0
0.249188 -0.000156869 0.0
0.232036 -0.000592455 0.0
0.243885 -0.000483023 0.0
0.249589 -0.000237426 0.0
0.248855 -0.000302175 0.0
0.235772 9.742e-05 0.0
0.212942 -0.000781092 0.0
0 0 0.0
0.0367676 3.89435e-05 0.0
0.141551 -0.000303371 0.0
0.100195 -0.000100915 0.0
0.0663906 8.56713e-06 0.0
0.213698 0.000209641 0.0
0.186926 0.000239141 0.0
0.165515 0.000125238 0.0
0.122627 -0.000100466 0.0
0.0930262 -0.000172967 0.0
0 0 0.0
0.0347213 -6.7383e-05 0.0
0.0641436 -0.00014699 0.0
0.165958 -0.000484662 0.0
0.187175 -0.000604392 0.0
0.1587 -0.000669161 0.0
0.24677 -5.27807e-05 0.0
0.248163 -0.000103915 0.0
0.23078 -0.000800067 0.0
0.240107 -0.000696299 0.0
0.248213 -0.000444678 0.0
0.239924 0.000124809 0.0
0.229102 0.000315541 0.0
0.199332 -0.000915315 0.0
0.218479 -0.00105735 0.0
0 0 0.0
0.0342151 -5.51063e-06 0.0
0.126853 -0.000536333 0.0
0.0680734 -0.000123681 0.0
0.0992384 -0.000368036 0.0
0.208243 0.000468566 0.0
0.19016 0.000443898 0.0
0.16873 0.000325086 0.0
0.141227 7.20861e-05 0.0
0.0956973 -0.000129406 0.0
0 0 0.0
0.0329661 -5.71279e-05 0.0
0.0660181 -8.01836e-05 0.0
0.183638 -0.00102788 0.0
0.16002 -0.00103581 0.0
0.244361 0.00011068 0.0
0.248844 -0.000190166 0.0
0.235432 -0.00100583 0.0
0.244135 -0.000768559 0.0
0.248557 -0.000483765 0.0
0.238135 0.000362413 0.0
0.21836 0.000694709 0.0
0.203204 -0.00134115 0.0
0.223003 -0.00134937 0.0
0 0 0.0
0.0475535 -0.000133272 0.0
0.128902 -0.00106871 0.0
0.0909887 -0.000634113 0.0
0.202883 0.00076035 0.0
0.178664 0.000687489 0.0
0.148841 0.00046904 0.0
0.119423 9.30321e-05 0.0
0.0783254 9.46706e-05 0.0
0 0 0.0
0.0339177 -2.4201e-05 0.0
0.188262 -0.00162628 0.0
0.16132 -0.00155952 0.0
0.245577 0.000147425 0.0
0.248811 -0.000337819 0.0
0.239209 -0.00120548 0.0
0.246232 -0.000887553 0.0
0.239027 0.000556077 0.0
0.226858 0.000893605 0.0
0.209816 0.00112086 0.0
0.227035 -0.00166546 0.0
0.210136 -0.00183014 0.0
0 0 0.0
0.0480615 -0.000325581 0.0
0.129387 -0.00187031 0.0
0.0916117 -0.00113589 0.0
0.187835 0.001166 0.0
0.160775 0.0010496 0.0
0.0471268 8.61283e-05 0.0
0.128359 0.00079314 0.0
0.0903798 0.000434334 0.0
0 0 0.0
0.188349 -0.00236003 0.0
0.161582 -0.00241726 0.0
0.246067 0.00018382 0.0
0.248252 -0.000387909 0.0
0.238773 -0.00156824 0.0
0.245611 -0.00112315 0.0
0.226508 0.00133613 0.0
0.238556 0.00084515 0.0
0.187833 0.0018496 0.0
0.209615 0.00168604 0.0
0.226767 -0.00211672 0.0
0.20998 -0.00251756 0.0
0 0 0.0
0.0489655 -0.00057231 0.0
0.130001 -0.00290112 0.0
0.0928526 -0.00192485 0.0
0.128719 0.00157622 0.0
0.160934 0.00181358 0.0
0.0475132 0.000269181 0.0
0.0909555 0.000977534 0.0
0 0 0.0
0.188313 -0.00331577 0.0
0.161781 -0.00352772 0.0
0.245432 0.000335856 0.0
0.247515 -0.000429244 0.0
0.226372 -0.00265093 0.0
0.237885 -0.00223099 0.0
0.244828 -0.00139186 0.0
0.22609 0.00178401 0.0
0.237903 0.00120926 0.0
0.187732 0.00249881 0.0
0.209276 0.00241963 0.0
0.209679 -0.00336572 0.0
0 0 0.0
0.050355 -0.000848679 0.0
0.130994 -0.00431037 0.0
0.0944857 -0.00272971 0.0
0.129108 0.00241364 0.0
0.161018 0.00282791 0.0
0.0483212 0.000503789 0.0
0.0918898 0.00165276 0.0
0 0 0.0
0.161928 -0.00485994 0.0
0.188057 -0.00481031 0.0
0.244583 0.000515627 0.0
0.246535 -0.000482781 0.0
0.237151 -0.00268175 0.0
0.225459 -0.00369969 0.0
0.243781 -0.00170849 0.0
0.237033 0.00165032 0.0
0.225536 0.00231782 0.0
0.18747 0.00355662 0.0
0.208737 0.00331422 0.0
0.209179 -0.00439724 0.0
0 0 0.0
0.0520398 -0.00108522 0.0
0.131955 -0.00540737 0.0
0.0966863 -0.0035391 0.0
0.129766 0.0035588 0.0
0.161039 0.00406925 0.0
0 0 0.0
0.0933555 0.00242269 0.0
0.049439 0.000738111 0.0
0.187614 -0.00624655 0.0
0.162078 -0.00637167 0.0
0.224651 -0.00446604 0.0
0.243489 0.000734379 0.0
0.245297 -0.000539207 0.0
0.242778 -0.00198407 0.0
0.236276 -0.00318496 0.0
0.235899 0.00216338 0.0
0.224656 0.00307036 0.0
0.186867 0.00516997 0.0
0.207958 0.0043651 0.0
0.208444 -0.00558452 0.0
0 0 0.0
0.054333 -0.00130896 0.0
0.0991336 -0.00420478 0.0
0.133447 -0.00668183 0.0
0.130871 0.00500054 0.0
0.161025 0.00547732 0.0
0 0 0.0
0.0511561 0.000993095 0.0
0.0950945 0.00313578 0.0
0.187173 -0.0073998 0.0
0.162306 -0.0079301 0.0
0.223665 -0.0053197 0.0
0.234289 -0.00419286 0.0
0.2421 0.000981762 0.0
0.243743 -0.000596585 0.0
0.241596 -0.00229443 0.0
0.234466 0.00274808 0.0
0.223488 0.00393853 0.0
0.186327 0.00624023 0.0
0.206906 0.00556924 0.0
0.207434 -0.00692313 0.0
0 0 0.0
0.0569721 -0.00146248 0.0
0.135887 -0.0079953 0.0
0.102826 -0.00488294 0.0
0.131968 0.00604422 0.0
0.161068 0.00698002 0.0
0.0531637 0.00120449 0.0
0 0 0.0
0.0978355 0.00393156 0.0
0.162725 -0.00945986 0.0
0.186349 -0.00944962 0.0
0.221582 -0.00687126 0.0
0.232431 -0.00501197 0.0
0.239754 -0.00273411 0.0
0.239508 0.00140178 0.0
0.241847 -0.000676686 0.0
0.232692 0.00339607 0.0
0.221413 0.00529143 0.0
0.18532 0.00816459 0.0
0.205559 0.0068898 0.0
0.206161 -0.00838887 0.0
0 0 0.0
0.0599267 -0.00158521 0.0
0.106552 -0.00530672 0.0
0.163482 -0.0108436 0.0
0.137999 -0.00879429 0.0
0.133719 0.00716781 0.0
0.161197 0.00814849 0.0
0.0555848 0.00136312 0.0
0 0 0.0
0.100539 0.00445031 0.0
0.204884 -0.00970695 0.0
0.185818 -0.0106371 0.0
0.230692 -0.00573138 0.0
0.219632 -0.00811709 0.0
0.236428 -0.00343506 0.0
0.239568 -0.000760665 0.0
0.237771 0.00164726 0.0
0.230548 0.0041069 0.0
0.219809 0.0061854 0.0
0.184628 0.00929017 0.0
0.161778 0.00978384 0.0
0.203966 0.00827738 0.0
0 0 0.0
0.110321 -0.00547229 0.0
0.0630365 -0.00167388 0.0
0.164432 -0.0117669 0.0
0.141618 -0.00947669 0.0
0.135978 0.00807272 0.0
0 0 0.0
0.0582564 0.00145056 0.0
0.104401 0.00488723 0.0
0.203506 -0.0109793 0.0
0.185109 -0.0124416 0.0
0.228696 -0.00646765 0.0
0.217378 -0.00939028 0.0
0.23427 -0.00384248 0.0
0.236868 -0.000853293 0.0
0.235823 0.0018995 0.0
0.162412 0.0106343 0.0
0.202425 0.00945578 0.0
0.227993 0.00485409 0.0
0.218004 0.00708631 0.0
0.183832 0.0106771 0.0
0 0 0.0
0.0658671 -0.00163651 0.0
0.114592 -0.00545415 0.0
0.166007 -0.012512 0.0
0.145231 -0.00965859 0.0
0.108206 0.00504288 0.0
0.139133 0.00870152 0.0
0 0 0.0
0.0612384 0.00146958 0.0
0.201838 -0.0123364 0.0
0.184835 -0.0135326 0.0
0.225874 -0.00740184 0.0
0.214876 -0.0105785 0.0
0.231876 -0.00425873 0.0
0.233741 -0.000962174 0.0
0.231462 0.00238429 0.0
0.163708 0.0113517 0.0
0.225057 0.0055858 0.0
0.200865 0.01052 0.0
0.214586 0.0085171 0.0
0.183071 0.0120016 0.0
0 0 0.0
0.119296 -0.0051405 0.0
0.0689463 -0.00148003 0.0
0.168602 -0.0127463 0.0
0.149198 -0.00942657 0.0
0.111794 0.00494845 0.0
0.142449 0.00881661 0.0
0 0 0.0
0.0638448 0.00148202 0.0
0.184969 -0.0141515 0.0
0.200243 -0.0133721 0.0
0.222703 -0.00825363 0.0
0.228424 -0.00477386 0.0
0.212254 -0.0115425 0.0
0.230173 -0.00107859 0.0
0.22795 0.0026536 0.0
0.221768 0.00622167 0.0
0.227029 -0.00315792 0.0
0.165475 0.0115264 0.0
0.211798 0.00936298 0.0
0.198509 0.0116669 0.0
0.182898 0.0124478 0.0
0 0 0.0
0.123034 -0.00470897 0.0
0.0716889 -0.00137591 0.0
0.170717 -0.0124672 0.0
0.153319 -0.00882291 0.0
0.115709 0.00460083 0.0
0.145514 0.00858506 0.0
0 0 0.0
0.0663903 0.0013253 0.0
0.185552 -0.0141754 0.0
0.198876 -0.0139288 0.0
0.219321 -0.00892547 0.0
0.209648 -0.0121243 0.0
0.22287 -0.00538106 0.0
0.226659 0.000819123 0.0
0.222493 0.00471722 0.0
0.214687 0.0082535 0.0
0.224201 -0.00129777 0.0
0.167697 0.0111213 0.0
0.203662 0.0110153 0.0
0.193686 0.012264 0.0
0.183112 0.0124611 0.0
0 0 0.0
0.126817 -0.00412387 0.0
0.0740496 -0.00119052 0.0
0.173614 -0.0116653 0.0
0.157395 -0.00792103 0.0
0.14981 0.00777897 0.0
0.119427 0.00404228 0.0
0 0 0.0
0.0689188 0.0011051 0.0
0.186576 -0.013593 0.0
0.197846 -0.013902 0.0
0.218846 -0.00561312 0.0
0.207217 -0.0122155 0.0
0.215864 -0.00929157 0.0
0.221902 0.00283313 0.0
0.216127 0.00668455 0.0
0.207257 0.00984381 0.0
0.219963 -0.00148338 0.0
0.170258 0.0101634 0.0
0.19607 0.0117699 0.0
0.183802 0.0117334 0.0
0 0 0.0
0.0758818 -0.00101779 0.0
0.130192 -0.00348399 0.0
0.160689 -0.00699847 0.0
0.18793 -0.0124805 0.0
0.17666 -0.0104879 0.0
0.153483 0.00670722 0.0
0.122739 0.0033725 0.0
0.0707412 0.000933802 0.0
0 0 0.0
0.20542 -0.0118958 0.0
0.197219 -0.0132936 0.0
0.21578 -0.00568035 0.0
0.212529 -0.00930353 0.0
0.204723 0.00939885 0.0
0.21781 0.00268272 0.0
0.212568 0.00646474 0.0
0.215794 -0.0017074 0.0
0.18481 0.0103771 0.0
0.173433 0.00841558 0.0
0.194839 0.0106076 0.0
0 0 0.0
0.0776032 -0.000809194 0.0
0.133267 -0.00282855 0.0
0.164163 -0.00585804 0.0
0.189134 -0.0114089 0.0
0.180277 -0.00879619 0.0
0.156807 0.00542433 0.0
0.125772 0.00253177 0.0
0.072253 0.000697581 0.0
0 0 0.0
0.159747 0.00403266 0.0
0.203887 -0.0112653 0.0
0.196905 -0.0117939 0.0
0.208279 -0.00873214 0.0
0.212851 -0.0056457 0.0
0.201833 0.00790122 0.0
0.20923 0.00579758 0.0
0.213848 0.00227331 0.0
0.211886 -0.00196674 0.0
0.186073 0.008573 0.0
0.176076 0.00665541 0.0
0.194366 0.00904399 0.0
0 0 0.0
0.0789753 -0.000648675 0.0
0.135588 -0.00230564 0.0
0.167201 -0.00484052 0.0
0.19077 -0.00984998 0.0
0.183053 -0.00738963 0.0
0.073231 0.00046704 0.0
0.127902 0.00176981 0.0
0 0 0.0
0.161711 0.00290632 0.0
0.202422 -0.0102249 0.0
0.19706 -0.0103629 0.0
0.205817 -0.00805485 0.0
0.209429 -0.00548567 0.0
0.200441 0.00660664 0.0
0.206251 0.00473959 0.0
0.208429 -0.00229654 0.0
0.208604 0.00127155 0.0
0.187017 0.00706254 0.0
0.17834 0.0048374 0.0
0.194128 0.00711917 0.0
0 0 0.0
0.0801343 -0.000545813 0.0
0.137437 -0.00192368 0.0
0.170047 -0.00386388 0.0
0.192733 -0.00797551 0.0
0.197368 -0.00892934 0.0
0.185457 -0.00615946 0.0
0.0739632 0.000253244 0.0
0.129388 0.00108259 0.0
0 0 0.0
0.163498 0.00169988 0.0
0.201005 -0.00864096 0.0
0.204154 -0.00746795 0.0
0.206506 -0.00528392 0.0
0.206186 -0.00257098 0.0
0.19928 0.00512119 0.0
0.20372 0.0034132 0.0
0.205641 0.000370941 0.0
0.180246 0.0030947 0.0
0.188219 0.00500005 0.0
0.194096 0.00505902 0.0
0 0 0.0
0.0810922 -0.000518099 0.0
0.139018 -0.00167389 0.0
0.17211 -0.00329494 0.0
0.193873 -0.00704843 0.0
0.197808 -0.00769306 0.0
0.187524 -0.00520147 0.0
0.074322 7.19307e-05 0.0
0.130344 0.000486227 0.0
0 0 0.0
0.181333 0.00186053 0.0
0.130778 1.22863e-05 0.0
0.164794 0.000547188 0.0
0.200408 -0.00762509 0.0
0.202823 -0.00690402 0.0
0.203248 -0.00506543 0.0
0.204287 -0.00287603 0.0
0.203683 -0.000380188 0.0
0.198177 0.00327014 0.0
0.200948 0.00134311 0.0
0.189433 0.00259719 0.0
0.194147 0.00333812 0.0
0.200084 -0.00695522 0.0
0 0 0.0
0.0819659 -0.000495003 0.0
0.173812 -0.0029785 0.0
0.140368 -0.00157928 0.0
0.198311 -0.00678679 0.0
0.195461 -0.00591032 0.0
0.189234 -0.00458542 0.0
0.0744356 -6.60531e-05 0.0
0 0 0.0
0.190023 0.00132898 0.0
0.182359 0.000530443 0.0
0.16542 -0.000255879 0.0
0.0741735 -0.00014133 0.0
0.130876 -0.000377408 0.0
0.201568 -0.00638701 0.0
0.20198 -0.00505487 0.0
0.202239 -0.00334277 0.0
0.201039 -0.00374649 0.0
0.202073 -0.00115325 0.0
0.19735 0.0014925 0.0
0.199501 -9.16267e-05 0.0
0.194168 0.00175684 0.0
0.19989 -0.00651694 0.0
0.0827615 -0.00052436 0.0
0 0 0.0
0.175042 -0.00289094 0.0
0.1416 -0.00161094 0.0
0.198803 -0.00625857 0.0
0.196327 -0.00553617 0.0
0.190689 -0.00430665 0.0
0 0 0.0
0.190481 -0.000108573 0.0
0.182951 -0.000722563 0.0
0.165529 -0.000789301 0.0
0.0739048 -0.000230222 0.0
0.130618 -0.000669886 0.0
0.200399 -0.00605659 0.0
0.200973 -0.00513228 0.0
0.200077 -0.00418193 0.0
0.1998 -0.00255188 0.0
0.196694 -0.000111713 0.0
0.198366 -0.0014181 0.0
0.19415 -0.000317024 0.0
0.199833 -0.00632102 0.0
0 0 0.0
0.0837318 -0.000575405 0.0
0.17637 -0.00301051 0.0
0.142723 -0.00175109 0.0
0.191913 -0.00434695 0.0
0.199307 -0.00612509 0.0
0.197534 -0.00535448 0.0
0 0 0.0
0 0 0.0
0.19069 -0.00127927 0.0
0.183126 -0.00154348 0.0
0.165439 -0.00129859 0.0
0.130133 -0.000898977 0.0
0.0734504 -0.000309196 0.0
0.199899 -0.00615781 0.0
0.199995 -0.00541124 0.0
0.197653 -0.0023724 0.0
0.199088 -0.00482509 0.0
0.198698 -0.00349317 0.0
0.196163 -0.00150893 0.0
0.194025 -0.00161072 0.0
0.199615 -0.00644216 0.0
0.199835 -0.00646963 0.0
0.0848438 -0.000670137 0.0
0.14403 -0.00198873 0.0
0.177696 -0.00334212 0.0
0.192875 -0.00459826 0.0
0.199779 -0.00634733 0.0
0.198197 -0.00555867 0.0
0 0 0.0
0 0 0.0
0.182947 -0.00206474 0.0
0.190575 -0.00242852 0.0
0.129501 -0.00106285 0.0
0.164934 -0.00175027 0.0
0.0728602 -0.000362736 0.0
0.19905 -0.00611611 0.0
0.198327 -0.00556535 0.0
0.19379 -0.00269001 0.0
0.197039 -0.0032493 0.0
0.19801 -0.00420398 0.0
0.195494 -0.00307798 0.0
0.199417 -0.00686893 0.0
0.199966 -0.00717913 0.0
0.200219 -0.00692551 0.0
0.0861309 -0.000833488 0.0
0.145561 -0.0023597 0.0
0.179212 -0.00400094 0.0
0.193963 -0.00512776 0.0
0.199197 -0.00626125 0.0
0 0 0.0
0 0 0.0
0.182476 -0.00271605 0.0
0.190287 -0.00318062 0.0
0.128636 -0.00123937 0.0
0.164254 -0.00207425 0.0
0.0721844 -0.000403917 0.0
0.19743 -0.0049074 0.0
0.197708 -0.00638297 0.0
0.198559 -0.0068562 0.0
0.193435 -0.00359813 0.0
0.196386 -0.00426508 0.0
0.195003 -0.00408147 0.0
0.189809 -0.00383132 0.0
0.199125 -0.00801784 0.0
0 0 0.0
0.200019 -0.0080885 0.0
0.199973 -0.0071733 0.0
0.200618 -0.00779421 0.0
0.0876077 -0.00101611 0.0
0.180539 -0.00466052 0.0
0.147538 -0.00296282 0.0
0.1953 -0.00619832 0.0
0 0 0.0
0 0 0.0
0 0 0.0
0 0 0.0
0 0 0.0
0.0714914 -0.000439202 0.0
0.163447 -0.00236878 0.0
0.181872 -0.00318324 0.0
0.127806 -0.00136755 0.0
0.196763 -0.00580889 0.0
0.197142 -0.00731045 0.0
0.198145 -0.00776518 0.0
0.194542 -0.00481766 0.0
0.192935 -0.00439944 0.0
0.195507 -0.00558116 0.0
0.19243 -0.00502653 0.0
0.189302 -0.00427154 0.0
0.198881 -0.00914395 0.0
0.200063 -0.00921838 0.0
0 0 0.0
-0.000326446 0.000205045 0.0
0 0 0.0
-0.000833828 0.00908627 0.0
0.200986 -0.00899913 0.0
0.200533 -0.00805963 0.0
0.0896026 -0.00128514 0.0
0.182204 -0.00562661 0.0
0.149709 -0.00369713 0.0
0.196518 -0.00743671 0.0
0 0 0.0
0 0 0.0
0 0 0.0
-0.00073092 0.00657895 0.0
-0.00050523 0.00140119 0.0
-0.00128363 0.00131215 0.0
0 0 0.0
0.0706588 -0.000480131 0.0
0.1626 -0.00259171 0.0
0.181063 -0.00360924 0.0
0.126608 -0.00151303 0.0
0.196138 -0.00675418 0.0
0.196562 -0.0083463 0.0
0.197707 -0.00883551 0.0
0.194033 -0.00552465 0.0
0.194993 -0.00632871 0.0
0.191808 -0.00561849 0.0
0.188287 -0.0049714 0.0
0.198587 -0.0104669 0.0
0.199679 -0.0105205 0.0
0.200699 -0.0103907 0.0
0 0 0.0
-0.00142068 0.000528871 0.0
0 0 0.0
0 0 0.0
-0.00275053 0.0162452 0.0
-0.00305705 0.01277 0.0
0.201393 -0.0101474 0.0
0.201233 -0.00956288 0.0
0.152028 -0.00454631 0.0
0.0918907 -0.00165148 0.0
0.184125 -0.00691078 0.0
0.19773 -0.00901113 0.0
0 0 0.0
-0.00202867 0.00542738 0.0
-0.00261889 0.00889715 0.0
-0.00232748 0.00352115 0.0
-0.0035561 0.00235062 0.0
0 0 0.0
0.0697769 -0.000518807 0.0
0.161488 -0.00284633 0.0
0.180076 -0.00400497 0.0
0.125418 -0.00164257 0.0
0.195475 -0.00774201 0.0
0.195918 -0.00948289 0.0
0.197196 -0.0100757 0.0
0.193074 -0.00664955 0.0
0.194425 -0.00706576 0.0
0.190951 -0.00631354 0.0
0.179023 -0.00441091 0.0
0.187345 -0.00552151 0.0
0.198249 -0.0116803 0.0
0.199904 -0.0117627 0.0
0.201397 -0.0118121 0.0
0 0 0.0
-0.00369182 0.000863418 0.0
0 0 0.0
0 0 0.0
0 0 0.0
0 0 0.0
-0.00609272 0.0126275 0.0
-0.000745452 0.0132389 0.0
-0.00267566 0.0190836 0.0
-0.00613015 0.022289 0.0
-0.00567841 0.0175551 0.0
0 0 0.0
-0.000113599 0.0173805 0.0
0.202017 -0.0119894 0.0
0.198802 -0.0105804 0.0
0 0 0.0
0.095139 -0.0022175 0.0
0.155197 -0.00572986 0.0
0.18674 -0.00902093 0.0
0 0 0.0
0 0 0.0
-0.0050562 0.00830432 0.0
-0.00554279 0.00535432 0.0
-0.00683979 0.00308223 0.0
0 0 0.0
0.0687653 -0.000557805 0.0
0.160051 -0.00313582 0.0
0.124087 -0.0017668 0.0
0.177976 -0.00470831 0.0
0.194737 -0.00879082 0.0
0.195356 -0.0104086 0.0
0.196571 -0.0114925 0.0
0.192357 -0.00732988 0.0
0.193631 -0.00801067 0.0
0.189961 -0.00699815 0.0
0.186477 -0.00591577 0.0
0.200608 -0.0130673 0.0
0.197796 -0.0130356 0.0
0.199476 -0.0143491 0.0
0.201417 -0.0145937 0.0
0.20253 -0.01453 0.0
0 0 0.0
-0.00567299 0.000930821 0.0
-0.000317355 0.0177891 0.0