# vtk DataFile Version 3.0
Mesh NS-CD Problem
ASCII
DATASET UNSTRUCTURED_GRID
POINTS 10839 float
-2 0.3 0.0
-2 0.4 0.0
-2 0.35 0.0
-2 0.45 0.0
-2 0.5 0.0
-2 0.55 0.0
-2 0 0.0
-2 0.05 0.0
-2 0.85 0.0
-2 0.9 0.0
-2 0.1 0.0
-2 0.15 0.0
-2 0.25 0.0
-2 0.2 0.0
-1.96653 0.266667 0.0
-1.96524 0.415385 0.0
-1.96485 0.315 0.0
-1.96348 0.363636 0.0
-1.96414 0.464286 0.0
-2 0.6 0.0
-1.96538 0.584615 0.0
-1.96538 0.538462 0.0
-1.94979 0 0.0
-1.96653 0.0666666 0.0
-1.93306 0.0333333 0.0
-2 0.8 0.0
-2 0.75 0.0
-2 0.7 0.0
-2 0.65 0.0
-1.96249 0.7375 0.0
-1.96666 0.833333 0.0
-2 1 0.0
-2 0.95 0.0
-1.96249 0.8875 0.0
-1.96666 0.933333 0.0
-1.96234 0.1125 0.0
-1.96653 0.166667 0.0
-1.93724 0.225 0.0
-1.92971 0.28 0.0
-1.93048 0.380769 0.0
-1.93048 0.423077 0.0
-1.89958 0.3375 0.0
-1.9292 0.484203 0.0
-1.92117 0.530907 0.0
-1.96363 0.636364 0.0
-1.93076 0.576923 0.0
-1.89958 0 0.0
-1.88703 0.0375 0.0
-1.90963 0.08 0.0
-1.86611 0.0666666 0.0
-1.93749 0.775 0.0
-1.93635 0.672727 0.0
-1.92999 0.72 0.0
-1.93332 0.866667 0.0
-1.92856 0.821429 0.0
-1.94999 1 0.0
-1.92499 0.9625 0.0
-1.92499 0.925 0.0
-1.89998 0.9 0.0
-1.89958 0.125 0.0
-1.92827 0.178571 0.0
-1.89958 0.233333 0.0
-1.89045 0.290909 0.0
-1.86096 0.311538 0.0
-1.89241 0.392857 0.0
-1.89334 0.448489 0.0
-1.85655 0.357143 0.0
-1.89614 0.653846 0.0
-1.89427 0.504121 0.0
-1.8952 0.559753 0.0
-1.89614 0.615385 0.0
-1.84937 0 0.0
-1.83264 0.0333333 0.0
-1.85655 0.107143 0.0
-1.81172 0.075 0.0
-1.89998 0.766667 0.0
-1.89089 0.709091 0.0
-1.87498 0.85 0.0
-1.85998 0.79 0.0
-1.88748 0.8125 0.0
-1.89998 1 0.0
-1.88748 0.9625 0.0
-1.86664 0.933333 0.0
-1.85712 0.892857 0.0
-1.87448 0.15 0.0
-1.86611 0.194444 0.0
-1.83264 0.133333 0.0
-1.83264 0.2625 0.0
-1.82068 0.321429 0.0
-1.85664 0.404762 0.0
-1.85674 0.452381 0.0
-1.85683 0.5 0.0
-1.81184 0.375 0.0
-1.85712 0.642857 0.0
-1.85693 0.547619 0.0
-1.85702 0.595238 0.0
-1.79917 0 0.0
-1.78482 0.0357143 0.0
-1.79917 0.116667 0.0
-1.76569 0.0666666 0.0
-1.85452 0.745455 0.0
-1.82689 0.692308 0.0
-1.81815 0.781818 0.0
-1.82497 0.825 0.0
-1.84997 1 0.0
-1.8333 0.958333 0.0
-1.81247 0.8875 0.0
-1.81247 0.925 0.0
-1.81742 0.218182 0.0
-1.82427 0.175 0.0
-1.77634 0.145455 0.0
-1.79144 0.242308 0.0
-1.78482 0.285714 0.0
-1.77469 0.332653 0.0
-1.81215 0.529762 0.0
-1.81194 0.422619 0.0
-1.81203 0.470238 0.0
-1.76714 0.392857 0.0
-1.81234 0.625 0.0
-1.79732 0.571429 0.0
-1.74896 0 0.0
-1.73222 0.0333333 0.0
-1.75398 0.105 0.0
-1.71883 0.07 0.0
-1.79227 0.730769 0.0
-1.78007 0.679121 0.0
-1.75765 0.769231 0.0
-1.78178 0.818182 0.0
-1.78996 0.86 0.0
-1.79996 1 0.0
-1.78568 0.964286 0.0
-1.76663 0.922222 0.0
-1.76569 0.1875 0.0
-1.73222 0.15 0.0
-1.74896 0.25 0.0
-1.73714 0.304762 0.0
-1.76743 0.537202 0.0
-1.72869 0.343878 0.0
-1.76732 0.485119 0.0
-1.76723 0.440476 0.0
-1.72243 0.410714 0.0
-1.76757 0.607143 0.0
-1.69875 0 0.0
-1.68369 0.035 0.0
-1.69875 0.1125 0.0
-1.66528 0.075 0.0
-1.74341 0.708974 0.0
-1.73324 0.665934 0.0
-1.70441 0.74478 0.0
-1.71423 0.785714 0.0
-1.72303 0.826923 0.0
-1.74541 0.854545 0.0
-1.74541 0.890909 0.0
-1.74996 1 0.0
-1.73745 0.9625 0.0
-1.71359 0.927273 0.0
-1.68716 0.153846 0.0
-1.7131 0.214286 0.0
-1.70725 0.275 0.0
-1.69712 0.321939 0.0
-1.72279 0.589286 0.0
-1.72261 0.5 0.0
-1.7227 0.544643 0.0
-1.6827 0.355102 0.0
-1.67773 0.428571 0.0
-1.70763 0.464286 0.0
-1.70369 0.62449 0.0
-1.64854 0 0.0
-1.63181 0.0375 0.0
-1.64137 0.142857 0.0
-1.61764 0.0769231 0.0
-1.69458 0.703846 0.0
-1.67471 0.657437 0.0
-1.66143 0.727637 0.0
-1.67125 0.768571 0.0
-1.67851 0.821429 0.0
-1.68841 0.861538 0.0
-1.70904 0.890909 0.0
-1.69995 1 0.0
-1.68176 0.963636 0.0
-1.67267 0.927273 0.0
-1.65427 0.187143 0.0
-1.66718 0.231429 0.0
-1.66554 0.3 0.0
-1.67802 0.571429 0.0
-1.67792 0.523809 0.0
-1.6367 0.366327 0.0
-1.63682 0.423469 0.0
-1.62568 0.502976 0.0
-1.6629 0.470238 0.0
-1.65254 0.618367 0.0
-1.6059 0.307143 0.0
-1.59833 0 0.0
-1.58288 0.0384615 0.0
-1.60563 0.169643 0.0
-1.58179 0.112271 0.0
-1.56964 0.0714286 0.0
-1.64574 0.690385 0.0
-1.62827 0.751429 0.0
-1.63371 0.791071 0.0
-1.64279 0.857143 0.0
-1.65378 0.896154 0.0
-1.64994 1 0.0
-1.6363 0.963636 0.0
-1.61916 0.930769 0.0
-1.61345 0.209107 0.0
-1.62126 0.248571 0.0
-1.56989 0.196429 0.0
-1.63324 0.553571 0.0
-1.58846 0.535714 0.0
-1.59408 0.361905 0.0
-1.59161 0.402211 0.0
-1.58832 0.464286 0.0
-1.61504 0.598581 0.0
-1.59683 0.64359 0.0
-1.57899 0.274107 0.0
-1.56176 0.322381 0.0
-1.54812 0 0.0
-1.53378 0.0357143 0.0
-1.54593 0.147619 0.0
-1.53385 0.0732143 0.0
-1.53393 0.110714 0.0
-1.58522 0.704286 0.0
-1.58709 0.745 0.0
-1.58896 0.785714 0.0
-1.60695 0.830357 0.0
-1.60707 0.892857 0.0
-1.59993 1 0.0
-1.58454 0.965385 0.0
-1.57135 0.928571 0.0
-1.55209 0.241071 0.0
-1.5291 0.198214 0.0
-1.56936 0.570918 0.0
-1.54369 0.517857 0.0
-1.5464 0.380952 0.0
-1.54564 0.427721 0.0
-1.54488 0.47449 0.0
-1.55026 0.606122 0.0
-1.54222 0.677143 0.0
-1.52943 0.282857 0.0
-1.52143 0.33619 0.0
-1.49792 0 0.0
-1.49802 0.05 0.0
-1.49822 0.15 0.0
-1.49312 0.1 0.0
-1.5423 0.717143 0.0
-1.54419 0.767857 0.0
-1.54727 0.819048 0.0
-1.57122 0.861905 0.0
-1.53553 0.914286 0.0
-1.54992 1 0.0
-1.53563 0.964286 0.0
-1.49842 0.25 0.0
-1.48831 0.2 0.0
-1.5214 0.558929 0.0
-1.49891 0.5 0.0
-1.49871 0.4 0.0
-1.47631 0.45 0.0
-1.49911 0.6 0.0
-1.49921 0.65 0.0
-1.49931 0.7 0.0
-1.48111 0.35 0.0
-1.48351 0.3 0.0
-1.44771 0 0.0
-1.44782 0.05 0.0
-1.44804 0.15 0.0
-1.44793 0.1 0.0
-1.49941 0.75 0.0
-1.49951 0.8 0.0
-1.49981 0.95 0.0
-1.49961 0.85 0.0
-1.49971 0.9 0.0
-1.49991 1 0.0
-1.44826 0.25 0.0
-1.43815 0.2 0.0
-1.47151 0.55 0.0
-1.44881 0.5 0.0
-1.44859 0.4 0.0
-1.42619 0.45 0.0
-1.44913 0.65 0.0
-1.44902 0.6 0.0
-1.44935 0.75 0.0
-1.44924 0.7 0.0
-1.43972 0.35 0.0
-1.43336 0.3 0.0
-1.3975 0 0.0
-1.39762 0.05 0.0
-1.39786 0.15 0.0
-1.39274 0.1 0.0
-1.44957 0.85 0.0
-1.44946 0.8 0.0
-1.4523 0.95 0.0
-1.44968 0.9 0.0
-1.4499 1 0.0
-1.3981 0.25 0.0
-1.38798 0.2 0.0
-1.42141 0.55 0.0
-1.3987 0.5 0.0
-1.39834 0.35 0.0
-1.37845 0.4 0.0
-1.37607 0.45 0.0
-1.40784 0.65 0.0
-1.39894 0.6 0.0
-1.41185 0.75 0.0
-1.39918 0.7 0.0
-1.38322 0.3 0.0
-1.34729 0 0.0
-1.34492 0.05 0.0
-1.34018 0.15 0.0
-1.34255 0.1 0.0
-1.40707 0.85 0.0
-1.39941 0.8 0.0
-1.39977 0.95 0.0
-1.39965 0.9 0.0
-1.39989 1 0.0
-1.33781 0.2 0.0
-1.33544 0.25 0.0
-1.37131 0.55 0.0
-1.34859 0.5 0.0
-1.33833 0.4 0.0
-1.3307 0.35 0.0
-1.32595 0.45 0.0
-1.34885 0.6 0.0
-1.36655 0.65 0.0
-1.36179 0.75 0.0
-1.34911 0.7 0.0
-1.33307 0.3 0.0
-1.29708 0 0.0
-1.29722 0.05 0.0
-1.2975 0.15 0.0
-1.29236 0.1 0.0
-1.35703 0.85 0.0
-1.34937 0.8 0.0
-1.34988 1 0.0
-1.34962 0.9 0.0
-1.35226 0.95 0.0
-1.28528 0.25 0.0
-1.28764 0.2 0.0
-1.28931 0.35 0.0
-1.32121 0.55 0.0
-1.29848 0.5 0.0
-1.28709 0.45 0.0
-1.2982 0.4 0.0
-1.29876 0.6 0.0
-1.31647 0.65 0.0
-1.29918 0.75 0.0
-1.29904 0.7 0.0
-1.28292 0.3 0.0
-1.24687 0 0.0
-1.24702 0.05 0.0
-1.24717 0.1 0.0
-1.24732 0.15 0.0
-1.29946 0.85 0.0
-1.29932 0.8 0.0
-1.29987 1 0.0
-1.29974 0.95 0.0
-1.30462 0.9 0.0
-1.24762 0.25 0.0
-1.23747 0.2 0.0
-1.24792 0.35 0.0
-1.22807 0.4 0.0
-1.27111 0.55 0.0
-1.24837 0.5 0.0
-1.24822 0.45 0.0
-1.24867 0.6 0.0
-1.26639 0.65 0.0
-1.26167 0.75 0.0
-1.24897 0.7 0.0
-1.23277 0.3 0.0
-1.19667 0 0.0
-1.19683 0.05 0.0
-1.18964 0.15 0.0
-1.19198 0.1 0.0
-1.25695 0.85 0.0
-1.24927 0.8 0.0
-1.25223 0.95 0.0
-1.24987 1 0.0
-1.24957 0.9 0.0
-1.1873 0.2 0.0
-1.18496 0.25 0.0
-1.18028 0.35 0.0
-1.17794 0.4 0.0
-1.1981 0.45 0.0
-1.19842 0.55 0.0
-1.19826 0.5 0.0
-1.19858 0.6 0.0
-1.19874 0.65 0.0
-1.19906 0.75 0.0
-1.1989 0.7 0.0
-1.18262 0.3 0.0
-1.14646 0 0.0
-1.14663 0.05 0.0
-1.1418 0.1 0.0
-1.13713 0.2 0.0
-1.14697 0.15 0.0
-1.20691 0.85 0.0
-1.20926 0.8 0.0
-1.20221 0.95 0.0
-1.19986 1 0.0
-1.20456 0.9 0.0
-1.13997 0.3 0.0
-1.14731 0.25 0.0
-1.13781 0.4 0.0
-1.13014 0.35 0.0
-1.12548 0.45 0.0
-1.14815 0.5 0.0
-1.15962 0.55 0.0
-1.14849 0.6 0.0
-1.15745 0.65 0.0
-1.16155 0.75 0.0
-1.14917 0.8 0.0
-1.14883 0.7 0.0
-1.09625 0 0.0
-1.09661 0.1 0.0
-1.09393 0.05 0.0
-1.09697 0.2 0.0
-1.08929 0.15 0.0
-1.15687 0.85 0.0
-1.14985 1 0.0
-1.15219 0.95 0.0
-1.14951 0.9 0.0
-1.09733 0.3 0.0
-1.08465 0.25 0.0
-1.09769 0.4 0.0
-1.08 0.35 0.0
-1.08661 0.45 0.0
-1.09804 0.5 0.0
-1.12082 0.55 0.0
-1.10916 0.8 0.0
-1.10629 0.7 0.0
-1.0984 0.6 0.0
-1.11616 0.65 0.0
-1.11149 0.75 0.0
-1.04604 0 0.0
-1.04623 0.05 0.0
-1.04642 0.1 0.0
-1.0468 0.2 0.0
-1.03911 0.15 0.0
-1.09948 0.9 0.0
-1.0993 0.85 0.0
-1.09984 1 0.0
-1.09966 0.95 0.0
-1.04718 0.3 0.0
-1.03449 0.25 0.0
-1.04756 0.4 0.0
-1.02986 0.35 0.0
-1.04775 0.45 0.0
-1.04794 0.5 0.0
-1.04813 0.55 0.0
-1.05911 0.8 0.0
-1.04831 0.6 0.0
-1.06376 0.7 0.0
-1.0485 0.65 0.0
-1.04888 0.75 0.0
-0.995833 0 0.0
-0.991231 0.1 0.0
-0.996033 0.05 0.0
-0.986629 0.2 0.0
-0.98893 0.15 0.0
-1.05447 0.9 0.0
-1.04926 0.85 0.0
-1.04983 1 0.0
-1.04964 0.95 0.0
-0.984328 0.25 0.0
-0.99703 0.3 0.0
-0.997429 0.4 0.0
-0.997628 0.45 0.0
-0.979726 0.35 0.0
-0.997827 0.5 0.0
-0.998027 0.55 0.0
-0.998226 0.6 0.0
-0.961416 0.475 0.0
-1.00907 0.8 0.0
-0.998426 0.65 0.0
-0.998625 0.7 0.0
-1.01138 0.75 0.0
-0.945625 0 0.0
-0.946044 0.1 0.0
-0.943334 0.05 0.0
-0.946463 0.2 0.0
-0.938752 0.15 0.0
-1.00444 0.9 0.0
-1.00675 0.85 0.0
-0.999821 1 0.0
-1.00213 0.95 0.0
-0.93417 0.25 0.0
-0.946881 0.3 0.0
-0.9473 0.4 0.0
-0.929588 0.35 0.0
-0.925005 0.45 0.0
-0.960371 0.525 0.0
-0.959325 0.575 0.0
-0.958279 0.625 0.0
-0.922714 0.5 0.0
-0.959017 0.8 0.0
-0.957233 0.675 0.0
-0.952999 0.7125 0.0
-0.948766 0.75 0.0
-0.895417 0 0.0
-0.895855 0.1 0.0
-0.893136 0.05 0.0
-0.896294 0.2 0.0
-0.888573 0.15 0.0
-0.949184 0.85 0.0
-0.954415 0.9 0.0
-0.949812 1 0.0
-0.949603 0.95 0.0
-0.884011 0.25 0.0
-0.896733 0.3 0.0
-0.874887 0.45 0.0
-0.879449 0.35 0.0
-0.897171 0.4 0.0
-0.920423 0.55 0.0
-0.918132 0.6 0.0
-0.915841 0.65 0.0
-0.872606 0.5 0.0
-0.908968 0.8 0.0
-0.91355 0.7 0.0
-0.898707 0.75 0.0
-0.845208 0 0.0
-0.845438 0.05 0.0
-0.845667 0.1 0.0
-0.845896 0.15 0.0
-0.833853 0.25 0.0
-0.846126 0.2 0.0
-0.899146 0.85 0.0
-0.904386 0.9 0.0
-0.899584 0.95 0.0
-0.899804 1 0.0
-0.838062 0.35 0.0
[...]
POINT_DATA 10839
VECTORS Velocity float
0.21 0 0.0
0.24 0 0.0
0.2275 0 0.0
0.2475 0 0.0
0.25 0 0.0
0.2475 0 0.0
0 0 0.0
0.0475 0 0.0
0.1275 0 0.0
0.09 0 0.0
0.09 0 0.0
0.1275 0 0.0
0.1875 0 0.0
0.16 0 0.0
0.195557 -2.38063e-05 0.0
0.242841 -3.25176e-05 0.0
0.215776 -2.83534e-05 0.0
0.231406 -3.19766e-05 0.0
0.248725 -3.46274e-05 0.0
0.24 0 0.0
0.24284 -3.24437e-05 0.0
0.24852 -3.33462e-05 0.0
0 0 0.0
0.0622239 -4.12566e-06 0.0
0.0322269 -2.72603e-06 0.0
0.16 0 0.0
0.1875 0 0.0
0.21 0 0.0
0.2275 0 0.0
0.193592 -2.67217e-05 0.0
0.138887 -1.48073e-05 0.0
0 0 0.0
0.0475 0 0.0
0.0998415 -1.02689e-05 0.0
0.0622206 -4.17176e-06 0.0
0.0998462 -1.07316e-05 0.0
0.138891 -1.49413e-05 0.0
0.17438 -3.75202e-05 0.0
0.201605 -5.14474e-05 0.0
0.235787 -6.28729e-05 0.0
0.244085 -6.58021e-05 0.0
0.223602 -8.43151e-05 0.0
0.249751 -6.87593e-05 0.0
0.249044 -7.66314e-05 0.0
0.231404 -3.24966e-05 0.0
0.244081 -6.50193e-05 0.0
0 0 0.0
0.0361079 -5.28417e-06 0.0
0.0736125 -1.47919e-05 0.0
0.0622488 -1.62204e-05 0.0
0.17437 -3.69629e-05 0.0
0.220162 -5.14413e-05 0.0
0.201594 -5.15209e-05 0.0
0.115549 -2.21175e-05 0.0
0.146676 -3.43203e-05 0.0
0 0 0.0
0.0360875 -3.55479e-06 0.0
0.0693662 -1.15535e-05 0.0
0.0899836 -2.29742e-05 0.0
0.109391 -3.11115e-05 0.0
0.146691 -3.36608e-05 0.0
0.178902 -6.29909e-05 0.0
0.206293 -8.24525e-05 0.0
0.214501 -0.000111228 0.0
0.238527 -9.8651e-05 0.0
0.24735 -0.000102748 0.0
0.229607 -0.000125657 0.0
0.226323 -8.86009e-05 0.0
0.249983 -0.00010326 0.0
0.246426 -0.000100448 0.0
0.23668 -9.45472e-05 0.0
0 0 0.0
0.0322502 -5.98083e-06 0.0
0.0956963 -3.53612e-05 0.0
0.0694287 -2.66517e-05 0.0
0.178876 -6.20245e-05 0.0
0.206269 -8.30708e-05 0.0
0.127476 -4.77695e-05 0.0
0.165873 -7.8553e-05 0.0
0.152326 -5.61772e-05 0.0
0 0 0.0
0.0360798 -5.1176e-06 0.0
0.0621961 -1.60462e-05 0.0
0.0956303 -3.60224e-05 0.0
0.127524 -4.82366e-05 0.0
0.156661 -7.0171e-05 0.0
0.1156 -5.54302e-05 0.0
0.193626 -0.000115991 0.0
0.218141 -0.000146927 0.0
0.24094 -0.000133926 0.0
0.247737 -0.000138916 0.0
0.25 -0.00014044 0.0
0.234398 -0.000170205 0.0
0.229577 -0.000123913 0.0
0.247727 -0.000138608 0.0
0.240919 -0.000133686 0.0
0 0 0.0
0.0344865 -8.29632e-06 0.0
0.10312 -5.44982e-05 0.0
0.0623022 -2.70169e-05 0.0
0.189727 -9.84833e-05 0.0
0.212989 -0.000137782 0.0
0.170534 -0.000106708 0.0
0.14433 -7.91179e-05 0.0
0 0 0.0
0.0398985 -8.82862e-06 0.0
0.0997867 -4.94954e-05 0.0
0.0693218 -2.62076e-05 0.0
0.170624 -0.000106845 0.0
0.144421 -8.08341e-05 0.0
0.124377 -8.20414e-05 0.0
0.183649 -0.000135241 0.0
0.204131 -0.000162049 0.0
0.222038 -0.000190946 0.0
0.249109 -0.000184612 0.0
0.244026 -0.000179672 0.0
0.24912 -0.000184621 0.0
0.238551 -0.000217012 0.0
0.234353 -0.000169198 0.0
0.244883 -0.000194678 0.0
0 0 0.0
0.0322909 -8.79583e-06 0.0
0.0940733 -5.73429e-05 0.0
0.0652162 -3.42387e-05 0.0
0.196696 -0.00014793 0.0
0.217871 -0.00018193 0.0
0.177438 -0.000150233 0.0
0.14869 -0.000104637 0.0
0.12033 -7.31448e-05 0.0
0 0 0.0
0.0343915 -8.37417e-06 0.0
0.0716451 -3.43198e-05 0.0
0.152424 -0.000117456 0.0
0.127614 -0.000102053 0.0
0.187578 -0.00016799 0.0
0.211951 -0.00020946 0.0
0.248605 -0.00022948 0.0
0.225685 -0.00023745 0.0
0.249783 -0.000231151 0.0
0.246474 -0.00022724 0.0
0.242064 -0.000266271 0.0
0.23849 -0.000216395 0.0
0 0 0.0
0.0338729 -1.10416e-05 0.0
0.099992 -7.67732e-05 0.0
0.0695435 -4.56731e-05 0.0
0.206261 -0.000196031 0.0
0.222405 -0.000228682 0.0
0.189975 -0.000203878 0.0
0.168254 -0.000164491 0.0
0.143004 -0.000126024 0.0
0.124194 -9.28413e-05 0.0
0.0970849 -6.22697e-05 0.0
0 0 0.0
0.0360219 -1.06832e-05 0.0
0.0673161 -3.68217e-05 0.0
0.130334 -0.000123546 0.0
0.168482 -0.000165313 0.0
0.199472 -0.000215884 0.0
0.218378 -0.000253558 0.0
0.241992 -0.000266921 0.0
0.25 -0.000278673 0.0
0.247989 -0.000275411 0.0
0.229081 -0.000286298 0.0
0.244938 -0.000317534 0.0
0.248741 -0.000292552 0.0
0.234445 -0.000273601 0.0
0 0 0.0
0.0362308 -1.42577e-05 0.0
0.122658 -0.000126731 0.0
0.0712274 -5.4109e-05 0.0
0.20835 -0.00024016 0.0
0.225126 -0.000286119 0.0
0.198048 -0.000249551 0.0
0.177726 -0.000206468 0.0
0.146526 -0.000152048 0.0
0.119133 -0.000106047 0.0
0.0970522 -7.07233e-05 0.0
0 0 0.0
0.0349401 -1.19732e-05 0.0
0.0672792 -4.15057e-05 0.0
0.1523 -0.000173056 0.0
0.178017 -0.000211381 0.0
0.210116 -0.000267641 0.0
0.244858 -0.000317455 0.0
0.24942 -0.000326146 0.0
0.232225 -0.000337282 0.0
0.244197 -0.000361681 0.0
0.249989 -0.000386212 0.0
0.249132 -0.000342823 0.0
0.235913 -0.000328193 0.0
0.212963 -0.000327421 0.0
0 0 0.0
0.0371592 -1.68188e-05 0.0
0.14111 -0.000176724 0.0
0.0999563 -0.000106675 0.0
0.0665976 -5.27671e-05 0.0
0.213629 -0.000292689 0.0
0.186607 -0.000254775 0.0
0.165085 -0.000207181 0.0
0.122241 -0.000127381 0.0
0.0928672 -7.76731e-05 0.0
0 0 0.0
0.0349108 -1.33816e-05 0.0
0.0642284 -4.4115e-05 0.0
0.165597 -0.000221611 0.0
0.186967 -0.000260542 0.0
0.158123 -0.000232086 0.0
0.247091 -0.000371493 0.0
0.248691 -0.000427502 0.0
0.231052 -0.00037916 0.0
0.240526 -0.000404723 0.0
0.248757 -0.00042714 0.0
0.240203 -0.000378 0.0
0.229256 -0.000371529 0.0
0.199182 -0.000320673 0.0
0.218634 -0.000383568 0.0
0 0 0.0
0.0346465 -1.65103e-05 0.0
0.126169 -0.0001719 0.0
0.068176 -5.9686e-05 0.0
0.0988184 -0.00011628 0.0
0.208083 -0.000335323 0.0
0.189759 -0.000292222 0.0
0.168126 -0.00024241 0.0
0.14062 -0.000175361 0.0
0.0954101 -9.25244e-05 0.0
0 0 0.0
0.0332552 -1.37054e-05 0.0
0.0660579 -5.25785e-05 0.0
0.183223 -0.00030311 0.0
0.159263 -0.000259992 0.0
0.244898 -0.000440944 0.0
0.24966 -0.000484332 0.0
0.235961 -0.000444196 0.0
0.244858 -0.000469558 0.0
0.249378 -0.000483102 0.0
0.23862 -0.000446636 0.0
0.21842 -0.000403656 0.0
0.203104 -0.000374579 0.0
0.223371 -0.000438933 0.0
0 0 0.0
0.0478031 -3.30205e-05 0.0
0.127921 -0.000196195 0.0
0.0904225 -0.000109183 0.0
0.202608 -0.00036077 0.0
0.177966 -0.000296567 0.0
0.147887 -0.000222336 0.0
0.11872 -0.000145534 0.0
0.0780288 -7.76503e-05 0.0
0 0 0.0
0.0342338 -1.61583e-05 0.0
0.187832 -0.000359294 0.0
0.160401 -0.000289525 0.0
0.246451 -0.000504361 0.0
0.25 -0.000543655 0.0
0.24014 -0.000513302 0.0
0.247577 -0.000566146 0.0
0.239859 -0.000512915 0.0
0.227292 -0.000474869 0.0
0.209728 -0.000422373 0.0
0.227724 -0.00049849 0.0
0.21029 -0.000440203 0.0
0 0 0.0
0.0478663 -3.6836e-05 0.0
0.128016 -0.000219206 0.0
0.0905047 -0.000120105 0.0
0.187169 -0.000357414 0.0
0.159618 -0.000279971 0.0
0.0472009 -3.23537e-05 0.0
0.127083 -0.000193455 0.0
0.0895904 -0.000106823 0.0
0 0 0.0
0.187908 -0.000404097 0.0
0.160492 -0.000324286 0.0
0.24742 -0.000572665 0.0
0.249999 -0.000612986 0.0
0.240173 -0.000579105 0.0
0.247594 -0.000636881 0.0
0.227244 -0.000535101 0.0
0.239827 -0.000578021 0.0
0.187093 -0.000401857 0.0
0.209666 -0.000475615 0.0
0.227765 -0.000547573 0.0
0.210356 -0.000495156 0.0
0 0 0.0
0.0479358 -4.04119e-05 0.0
0.128122 -0.000243869 0.0
0.0906163 -0.000134752 0.0
0.126988 -0.000216927 0.0
0.15953 -0.000314373 0.0
0.047142 -3.58801e-05 0.0
0.0895005 -0.000118778 0.0
0 0 0.0
0.187995 -0.000451566 0.0
0.160594 -0.000361711 0.0
0.247402 -0.000643203 0.0
0.249999 -0.000687169 0.0
0.227809 -0.000600972 0.0
0.240224 -0.000677842 0.0
0.247613 -0.000713168 0.0
0.227199 -0.000586193 0.0
0.23979 -0.000647924 0.0
0.187029 -0.000436041 0.0
0.209594 -0.000532428 0.0
0.210429 -0.000553821 0.0
0 0 0.0
0.0480173 -4.49474e-05 0.0
0.128261 -0.000274452 0.0
0.0907301 -0.000148888 0.0
0.126899 -0.000237055 0.0
0.159431 -0.000350253 0.0
0.0470704 -3.98484e-05 0.0
0.089401 -0.000131152 0.0
0 0 0.0
0.160708 -0.000401421 0.0
0.188118 -0.000515146 0.0
0.247382 -0.000718812 0.0
0.249998 -0.000766798 0.0
0.240258 -0.000740451 0.0
0.227894 -0.000695513 0.0
0.247635 -0.000794079 0.0
0.239748 -0.00072241 0.0
0.227151 -0.000641905 0.0
0.186935 -0.000485281 0.0
0.209514 -0.00059283 0.0
0.210512 -0.000617227 0.0
0 0 0.0
0.0480994 -4.95825e-05 0.0
0.128375 -0.000299325 0.0
0.0908556 -0.000164306 0.0
0.126783 -0.000262408 0.0
0.15932 -0.000389 0.0
0 0 0.0
0.0892899 -0.000145049 0.0
0.0469982 -4.3777e-05 0.0
0.18823 -0.000573151 0.0
0.160835 -0.000445094 0.0
0.227952 -0.000758554 0.0
0.24736 -0.000800779 0.0
0.249998 -0.000853044 0.0
0.247653 -0.000862301 0.0
0.240296 -0.000805904 0.0
0.239702 -0.000803114 0.0
0.227084 -0.000714072 0.0
0.186801 -0.000551682 0.0
0.209425 -0.000658846 0.0
0.210604 -0.000684968 0.0
0 0 0.0
0.0481929 -5.46658e-05 0.0
0.0909801 -0.000179078 0.0
0.128522 -0.000330286 0.0
0.126633 -0.000293947 0.0
0.159196 -0.000430588 0.0
0 0 0.0
0.0469118 -4.81269e-05 0.0
0.0891809 -0.000157845 0.0
0.188323 -0.000618299 0.0
0.160977 -0.000492522 0.0
0.228014 -0.000826237 0.0
0.240368 -0.000931295 0.0
0.247334 -0.00088964 0.0
0.249997 -0.000945959 0.0
0.247674 -0.000934086 0.0
0.239649 -0.000890435 0.0
0.227011 -0.000792345 0.0
0.186711 -0.000595516 0.0
0.209324 -0.000729189 0.0
0.210708 -0.000759162 0.0
0 0 0.0
0.0482969 -6.0024e-05 0.0
0.128711 -0.000370695 0.0
0.0911485 -0.000200076 0.0
0.12651 -0.000319437 0.0
0.159058 -0.000475567 0.0
0.0468254 -5.2239e-05 0.0
0 0 0.0
0.0890341 -0.000175061 0.0
0.161135 -0.000544178 0.0
0.188492 -0.000700061 0.0
0.228132 -0.000946979 0.0
0.240428 -0.00103237 0.0
0.247701 -0.00103507 0.0
0.247292 -0.00102956 0.0
0.249996 -0.0010487 0.0
0.239591 -0.000987378 0.0
0.226898 -0.000906708 0.0
0.186546 -0.000673562 0.0
0.209213 -0.000806939 0.0
0.210822 -0.000839364 0.0
0 0 0.0
0.0484103 -6.59015e-05 0.0
0.0913172 -0.000219551 0.0
0.161308 -0.000598993 0.0
0.128867 -0.000402086 0.0
0.126352 -0.000351519 0.0
0.158937 -0.000514201 0.0
0.0467251 -5.76087e-05 0.0
0 0 0.0
0.0888999 -0.000190731 0.0
0.210929 -0.000913726 0.0
0.188608 -0.000755552 0.0
0.24048 -0.00111766 0.0
0.228228 -0.00104913 0.0
0.247748 -0.00119479 0.0
0.249996 -0.00115913 0.0
0.247266 -0.00111286 0.0
0.239526 -0.00109096 0.0
0.226819 -0.000984153 0.0
0.186435 -0.000725015 0.0
0.158736 -0.000577867 0.0
0.209089 -0.000890155 0.0
0 0 0.0
0.0914864 -0.000240179 0.0
0.0485438 -7.33487e-05 0.0
0.161461 -0.000649252 0.0
0.129097 -0.000451242 0.0
0.126177 -0.000386884 0.0
0 0 0.0
0.0466154 -6.31735e-05 0.0
0.0887213 -0.000211332 0.0
0.211046 -0.000992559 0.0
0.188816 -0.00085621 0.0
0.240536 -0.00120939 0.0
0.228337 -0.00115945 0.0
0.247774 -0.00129285 0.0
0.249993 -0.00128089 0.0
0.247239 -0.00120433 0.0
0.158587 -0.000621783 0.0
0.208974 -0.000966868 0.0
0.239453 -0.00120312 0.0
0.226734 -0.0010684 0.0
0.186274 -0.000799469 0.0
0 0 0.0
0.0486755 -8.00967e-05 0.0
0.0916886 -0.000264225 0.0
0.161671 -0.000715185 0.0
0.129322 -0.000497791 0.0
0.0885407 -0.000231182 0.0
0.125953 -0.00043109 0.0
0 0 0.0
0.0464893 -6.96401e-05 0.0
0.211197 -0.00109522 0.0
0.189006 -0.000945401 0.0
0.240614 -0.00133489 0.0
0.228456 -0.00128054 0.0
0.247805 -0.00139763 0.0
0.249993 -0.00141514 0.0
0.24718 -0.00138665 0.0
0.158386 -0.000683456 0.0
0.239374 -0.00132818 0.0
0.208848 -0.00104746 0.0
0.22658 -0.00122029 0.0
0.186048 -0.000904327 0.0
0 0 0.0
0.091937 -0.00029429 0.0
0.0488279 -8.82618e-05 0.0
0.161948 -0.000803367 0.0
0.129568 -0.000549008 0.0
0.0883639 -0.00025131 0.0
0.125737 -0.000474471 0.0
0 0 0.0
0.0463563 -7.64469e-05 0.0
0.189213 -0.00104433 0.0
0.211364 -0.00120902 0.0
0.240699 -0.00147476 0.0
0.247847 -0.00153987 0.0
0.228587 -0.00141287 0.0
0.24999 -0.00155892 0.0
0.247136 -0.00153265 0.0
0.239286 -0.00146256 0.0
0.249559 -0.00167072 0.0
0.158162 -0.00075098 0.0
0.226449 -0.00134592 0.0
0.208632 -0.00118738 0.0
0.185897 -0.000971685 0.0
0 0 0.0
0.0921642 -0.000321946 0.0
0.0490067 -9.84644e-05 0.0
0.162156 -0.000869885 0.0
0.12984 -0.000605521 0.0
0.0881494 -0.000275404 0.0
0.125535 -0.000514015 0.0
0 0 0.0
0.046219 -8.34566e-05 0.0
0.189443 -0.00115222 0.0
0.211548 -0.00133444 0.0
0.240789 -0.00162527 0.0
0.228733 -0.00156069 0.0
0.247914 -0.00177657 0.0
0.249166 -0.00167067 0.0
0.243775 -0.00162151 0.0
0.233394 -0.00152297 0.0
0.249985 -0.00180724 0.0
0.157916 -0.000825009 0.0
0.218028 -0.00137884 0.0
0.203222 -0.0012465 0.0
0.185622 -0.00109317 0.0
0 0 0.0
0.0924366 -0.000355262 0.0
0.0491926 -0.000108116 0.0
0.162436 -0.00096031 0.0
0.130141 -0.000668784 0.0
0.125237 -0.000572256 0.0
0.0879131 -0.000302208 0.0
0 0 0.0
0.0460536 -9.11746e-05 0.0
0.189697 -0.00127215 0.0
0.211752 -0.0014729 0.0
0.247963 -0.00195729 0.0
0.228892 -0.00172208 0.0
0.240896 -0.00179414 0.0
0.247053 -0.00178465 0.0
0.239123 -0.00170828 0.0
0.226203 -0.0015793 0.0
0.249978 -0.00199205 0.0
0.157643 -0.000907567 0.0
0.208305 -0.00139845 0.0
0.185374 -0.00120314 0.0
0 0 0.0
0.0493886 -0.000118685 0.0
0.0927383 -0.00039307 0.0
0.130422 -0.000727358 0.0
0.189976 -0.00140262 0.0
0.162748 -0.00106032 0.0
0.124949 -0.000628197 0.0
0.0876533 -0.000331737 0.0
0.0458784 -9.99655e-05 0.0
0 0 0.0
0.229037 -0.00186892 0.0
0.211977 -0.00162779 0.0
0.248008 -0.00211358 0.0
0.241008 -0.00198226 0.0
0.226032 -0.00173786 0.0
0.246989 -0.00196588 0.0
0.239003 -0.00188125 0.0
0.249974 -0.00219561 0.0
0.185103 -0.0013218 0.0
0.157282 -0.00101416 0.0
0.208012 -0.00158287 0.0
0 0 0.0
0.0496162 -0.000131857 0.0
0.0931081 -0.000438963 0.0
0.130783 -0.000802559 0.0
0.190204 -0.00151454 0.0
0.163162 -0.00119942 0.0
0.124633 -0.000688624 0.0
0.0873404 -0.000367144 0.0
0.0456884 -0.000109114 0.0
0 0 0.0
0.124284 -0.000757214 0.0
0.229192 -0.0020227 0.0
0.212302 -0.00185667 0.0
0.241183 -0.00227862 0.0
0.248054 -0.00227875 0.0
0.225775 -0.0019764 0.0
0.238875 -0.00206968 0.0
0.246922 -0.00216729 0.0
0.249963 -0.00241996 0.0
0.184804 -0.00145256 0.0
0.156945 -0.00111753 0.0
0.207761 -0.00174438 0.0
0 0 0.0
0.0498675 -0.000145716 0.0
0.0934825 -0.000486218 0.0
0.131182 -0.000888373 0.0
0.190539 -0.00167165 0.0
0.163552 -0.00132843 0.0
0.0454761 -0.000120743 0.0
0.0870217 -0.000404032 0.0
0 0 0.0
0.123962 -0.000818339 0.0
0.229399 -0.0022379 0.0
0.212586 -0.00205409 0.0
0.241324 -0.00251529 0.0
0.248115 -0.00251679 0.0
0.225594 -0.00214038 0.0
0.238734 -0.0022771 0.0
0.249954 -0.00266888 0.0
0.246807 -0.0024941 0.0
0.184558 -0.00155642 0.0
0.156575 -0.00122818 0.0
0.207484 -0.00191652 0.0
0 0 0.0
0.0501436 -0.000160826 0.0
0.0938941 -0.000537448 0.0
0.131692 -0.000997229 0.0
0.191 -0.00189543 0.0
0.212894 -0.00227519 0.0
0.163979 -0.00147352 0.0
0.0452592 -0.000131759 0.0
0.0866757 -0.000443244 0.0
0 0 0.0
0.123549 -0.000898642 0.0
0.229706 -0.00255747 0.0
0.241445 -0.00272784 0.0
0.248183 -0.00277886 0.0
0.249941 -0.00287468 0.0
0.225404 -0.00231295 0.0
0.238568 -0.00250945 0.0
0.246715 -0.00274724 0.0
0.156169 -0.00135054 0.0
0.184205 -0.00170997 0.0
0.207177 -0.00210538 0.0
0 0 0.0
0.0504704 -0.000180088 0.0
0.0943549 -0.000598246 0.0
0.132192 -0.00110944 0.0
0.191313 -0.00205064 0.0
0.213233 -0.00251687 0.0
0.164455 -0.00163557 0.0
0.0450074 -0.00014418 0.0
0.0862946 -0.000486542 0.0
0 0 0.0
0.155817 -0.00144955 0.0
0.0858782 -0.000531926 0.0
0.123024 -0.000998966 0.0
0.229963 -0.00284269 0.0
0.241572 -0.00294781 0.0
0.248286 -0.00320748 0.0
0.249931 -0.00309053 0.0
0.246637 -0.00296285 0.0
0.22515 -0.00254026 0.0
0.238318 -0.00286949 0.0
0.183711 -0.00191866 0.0
0.206893 -0.00228516 0.0
0.230194 -0.00308644 0.0
0 0 0.0
0.0508154 -0.000200561 0.0
0.132747 -0.00123656 0.0
0.0948661 -0.000668186 0.0
0.21361 -0.00279614 0.0
0.191876 -0.00233534 0.0
0.164979 -0.00181832 0.0
0.0447191 -0.000158332 0.0
0 0 0.0
0.183383 -0.00206022 0.0
0.155337 -0.00159069 0.0
0.122516 -0.0010976 0.0
0.0444119 -0.000174837 0.0
0.085418 -0.000584625 0.0
0.241749 -0.00326217 0.0
0.248345 -0.00346739 0.0
0.249904 -0.00340856 0.0
0.249884 -0.00367236 0.0
0.246547 -0.00319162 0.0
0.224862 -0.00279305 0.0
0.238101 -0.00315778 0.0
0.206581 -0.00246741 0.0
0.230433 -0.00335691 0.0
0.0511838 -0.00022438 0.0
0 0 0.0
0.133265 -0.00135549 0.0
0.0954327 -0.000745793 0.0
0.214019 -0.00310605 0.0
0.192255 -0.00253251 0.0
0.165563 -0.00202782 0.0
0 0 0.0
0.182913 -0.0022521 0.0
0.1547 -0.00177084 0.0
0.122052 -0.00117998 0.0
0.0440975 -0.000190579 0.0
0.0849174 -0.000639784 0.0
0.242008 -0.0037631 0.0
0.248407 -0.00374015 0.0
0.249854 -0.00394947 0.0
0.24636 -0.00366023 0.0
0.224549 -0.00306357 0.0
0.237871 -0.00347111 0.0
0.206056 -0.00278275 0.0
0.23076 -0.00372865 0.0
0 0 0.0
0.0516129 -0.000253297 0.0
0.133937 -0.00151792 0.0
0.0960065 -0.000829016 0.0
0.166206 -0.00226226 0.0
0.214469 -0.00345986 0.0
0.192944 -0.00289588 0.0
0 0 0.0
0 0 0.0
0.182391 -0.00246505 0.0
0.154111 -0.00193859 0.0
0.121456 -0.00129056 0.0
0.0843705 -0.000698722 0.0
0.043735 -0.000207497 0.0
0.242213 -0.00416898 0.0
0.24848 -0.00413541 0.0
0.237662 -0.00374108 0.0
0.249809 -0.00435224 0.0
0.2462 -0.00403317 0.0
0.224197 -0.00336319 0.0
0.205597 -0.00304473 0.0
0.24238 -0.00453153 0.0
0.231097 -0.00414442 0.0
0.0520911 -0.00028357 0.0
0.0967059 -0.000928186 0.0
0.134692 -0.00170952 0.0
0.166776 -0.0024834 0.0
0.214963 -0.00385489 0.0
0.193402 -0.00315907 0.0
0 0 0.0
0 0 0.0
0.153603 -0.00207031 0.0
0.181672 -0.0027439 0.0
0.0838348 -0.000751853 0.0
0.120704 -0.00142252 0.0
0.043338 -0.000227381 0.0
0.248592 -0.00476721 0.0
0.24974 -0.00480136 0.0
0.205096 -0.00332659 0.0
0.23743 -0.00402374 0.0
0.246065 -0.00434638 0.0
0.223659 -0.00379937 0.0
0.24256 -0.00491063 0.0
0.231613 -0.00478723 0.0
0.215494 -0.0043067 0.0
0.0526662 -0.000323063 0.0
0.0974985 -0.00105436 0.0
0.135665 -0.00196774 0.0
0.167556 -0.00278564 0.0
0.194236 -0.00364524 0.0
0 0 0.0
0 0 0.0
0.152769 -0.00228536 0.0
0.181029 -0.00299222 0.0
0.0831266 -0.000822904 0.0
0.119988 -0.00154134 0.0
0.0428894 -0.000246327 0.0
0.245909 -0.00467988 0.0
0.249656 -0.00528407 0.0
0.248649 -0.00527768 0.0
0.204542 -0.0036261 0.0
0.237114 -0.00441358 0.0
0.223206 -0.00416466 0.0
0.180324 -0.00324972 0.0
0.242868 -0.00567154 0.0
0 0 0.0
0.232001 -0.00534872 0.0
0.19498 -0.00410769 0.0
0.216065 -0.00481457 0.0
0.0532685 -0.00037051 0.0
0.136481 -0.00220165 0.0
0.0984982 -0.00122971 0.0
0.168598 -0.00323963 0.0
0 0 0.0
0 0 0.0
0 0 0.0
0 0 0.0
0 0 0.0
0.0424485 -0.000263396 0.0
0.119206 -0.00166799 0.0
0.152002 -0.00247818 0.0
0.0824981 -0.000882836 0.0
0.245677 -0.00513138 0.0
0.24954 -0.00581778 0.0
0.248703 -0.00583842 0.0
0.22279 -0.00446668 0.0
0.203925 -0.00394543 0.0
0.236587 -0.00500375 0.0
0.203354 -0.00422868 0.0
0.17975 -0.00344484 0.0
0.243081 -0.00630406 0.0
0.232417 -0.00596171 0.0
0 0 0.0
8.85204e-05 -4.1361e-05 0.0
0 0 0.0
-0.000202086 0.00079247 0.0
0.216684 -0.00540267 0.0
0.195589 -0.00449598 0.0
0.054025 -0.000434845 0.0
0.137543 -0.00251702 0.0
0.0995408 -0.00142578 0.0
0.169586 -0.0036936 0.0
0 0 0.0
0 0 0.0
0 0 0.0
-0.000134958 0.000290246 0.0
2.145e-05 -0.00017758 0.0
0.000117305 -0.00013299 0.0
0 0 0.0
0.0419459 -0.000284422 0.0
0.118497 -0.00177272 0.0
0.151166 -0.00267243 0.0
0.0816736 -0.000954793 0.0
0.245412 -0.00563327 0.0
0.249388 -0.00639794 0.0
0.248732 -0.00644918 0.0
0.222337 -0.0047924 0.0
0.236246 -0.00538171 0.0
0.202727 -0.00451613 0.0
0.178706 -0.00378174 0.0
0.243294 -0.00699605 0.0
0.235902 -0.0067099 0.0
0.225647 -0.00628854 0.0
0 0 0.0
0.000192776 -3.66998e-05 0.0
0 0 0.0
0 0 0.0
-0.000755292 0.00214218 0.0
-0.00065259 0.00119572 0.0
0.212507 -0.00576962 0.0
0.196444 -0.00509246 0.0
0.100616 -0.00164312 0.0
0.0548336 -0.000518625 0.0
0.138736 -0.00290994 0.0
0.170659 -0.00422969 0.0
0 0 0.0
-0.000145169 -3.34087e-05 0.0
-0.000383299 0.000422439 0.0
-7.0569e-06 -0.000126446 0.0
0.00011294 -3.00003e-05 0.0
0 0 0.0
0.0414092 -0.000304689 0.0
0.117602 -0.00189744 0.0
0.150264 -0.00286255 0.0
0.0808622 -0.00102097 0.0
0.245091 -0.00616862 0.0
0.249199 -0.00702567 0.0
0.248732 -0.00711858 0.0
0.221498 -0.00536457 0.0
0.235859 -0.00576558 0.0
0.201918 -0.00487669 0.0
0.149279 -0.00306693 0.0
0.177775 -0.00406674 0.0
0.243448 -0.00759441 0.0
0.233118 -0.00716109 0.0
0.217805 -0.00661372 0.0
0 0 0.0
0.000188831 2.38572e-05 0.0
0 0 0.0
0 0 0.0
0 0 0.0
0 0 0.0
-0.00110388 0.0013184 0.0
-0.000239599 0.00202259 0.0
-0.000824231 0.00301219 0.0
-0.00186447 0.00408917 0.0
-0.00145081 0.00253852 0.0
0 0 0.0
-0.000102687 0.00377487 0.0
0.197589 -0.00599774 0.0
0.171591 -0.00475293 0.0
0 0 0.0
0.0558896 -0.000641369 0.0
0.101981 -0.00195612 0.0
0.140294 -0.00351937 0.0
0 0 0.0
0 0 0.0
-0.000536775 0.000451146 0.0