# vtk DataFile Version 3.0
Mesh NS-CD Problem
ASCII
DATASET UNSTRUCTURED_GRID
POINTS 10839 float
-2 0.3 0.0
-2 0.4 0.0
-2 0.35 0.0
-2 0.45 0.0
-2 0.5 0.0
-2 0.55 0.0
-2 0 0.0
-2 0.05 0.0
-2 0.85 0.0
-2 0.9 0.0
-2 0.1 0.0
-2 0.15 0.0
-2 0.25 0.0
-2 0.2 0.0
-1.96653 0.266667 0.0
-1.96524 0.415385 0.0
-1.96485 0.315 0.0
-1.96348 0.363636 0.0
-1.96414 0.464286 0.0
-2 0.6 0.0
-1.96538 0.584615 0.0
-1.96538 0.538462 0.0
-1.94979 0 0.0
-1.96653 0.0666666 0.0
-1.93306 0.0333333 0.0
-2 0.8 0.0
-2 0.75 0.0
-2 0.7 0.0
-2 0.65 0.0
-1.96249 0.7375 0.0
-1.96666 0.833333 0.0
-2 1 0.0
-2 0.95 0.0
-1.96249 0.8875 0.0
-1.96666 0.933333 0.0
-1.96234 0.1125 0.0
-1.96653 0.166667 0.0
-1.93724 0.225 0.0
-1.92971 0.28 0.0
-1.93048 0.380769 0.0
-1.93048 0.423077 0.0
-1.89958 0.3375 0.0
-1.9292 0.484203 0.0
-1.92117 0.530907 0.0
-1.96363 0.636364 0.0
-1.93076 0.576923 0.0
-1.89958 0 0.0
-1.88703 0.0375 0.0
-1.90963 0.08 0.0
-1.86611 0.0666666 0.0
-1.93749 0.775 0.0
-1.93635 0.672727 0.0
-1.92999 0.72 0.0
-1.93332 0.866667 0.0
-1.92856 0.821429 0.0
-1.94999 1 0.0
-1.92499 0.9625 0.0
-1.92499 0.925 0.0
-1.89998 0.9 0.0
-1.89958 0.125 0.0
-1.92827 0.178571 0.0
-1.89958 0.233333 0.0
-1.89045 0.290909 0.0
-1.86096 0.311538 0.0
-1.89241 0.392857 0.0
-1.89334 0.448489 0.0
-1.85655 0.357143 0.0
-1.89614 0.653846 0.0
-1.89427 0.504121 0.0
-1.8952 0.559753 0.0
-1.89614 0.615385 0.0
-1.84937 0 0.0
-1.83264 0.0333333 0.0
-1.85655 0.107143 0.0
-1.81172 0.075 0.0
-1.89998 0.766667 0.0
-1.89089 0.709091 0.0
-1.87498 0.85 0.0
-1.85998 0.79 0.0
-1.88748 0.8125 0.0
-1.89998 1 0.0
-1.88748 0.9625 0.0
-1.86664 0.933333 0.0
-1.85712 0.892857 0.0
-1.87448 0.15 0.0
-1.86611 0.194444 0.0
-1.83264 0.133333 0.0
-1.83264 0.2625 0.0
-1.82068 0.321429 0.0
-1.85664 0.404762 0.0
-1.85674 0.452381 0.0
-1.85683 0.5 0.0
-1.81184 0.375 0.0
-1.85712 0.642857 0.0
-1.85693 0.547619 0.0
-1.85702 0.595238 0.0
-1.79917 0 0.0
-1.78482 0.0357143 0.0
-1.79917 0.116667 0.0
-1.76569 0.0666666 0.0
-1.85452 0.745455 0.0
-1.82689 0.692308 0.0
-1.81815 0.781818 0.0
-1.82497 0.825 0.0
-1.84997 1 0.0
-1.8333 0.958333 0.0
-1.81247 0.8875 0.0
-1.81247 0.925 0.0
-1.81742 0.218182 0.0
-1.82427 0.175 0.0
-1.77634 0.145455 0.0
-1.79144 0.242308 0.0
-1.78482 0.285714 0.0
-1.77469 0.332653 0.0
-1.81215 0.529762 0.0
-1.81194 0.422619 0.0
-1.81203 0.470238 0.0
-1.76714 0.392857 0.0
-1.81234 0.625 0.0
-1.79732 0.571429 0.0
-1.74896 0 0.0
-1.73222 0.0333333 0.0
-1.75398 0.105 0.0
-1.71883 0.07 0.0
-1.79227 0.730769 0.0
-1.78007 0.679121 0.0
-1.75765 0.769231 0.0
-1.78178 0.818182 0.0
-1.78996 0.86 0.0
-1.79996 1 0.0
-1.78568 0.964286 0.0
-1.76663 0.922222 0.0
-1.76569 0.1875 0.0
-1.73222 0.15 0.0
-1.74896 0.25 0.0
-1.73714 0.304762 0.0
-1.76743 0.537202 0.0
-1.72869 0.343878 0.0
-1.76732 0.485119 0.0
-1.76723 0.440476 0.0
-1.72243 0.410714 0.0
-1.76757 0.607143 0.0
-1.69875 0 0.0
-1.68369 0.035 0.0
-1.69875 0.1125 0.0
-1.66528 0.075 0.0
-1.74341 0.708974 0.0
-1.73324 0.665934 0.0
-1.70441 0.74478 0.0
-1.71423 0.785714 0.0
-1.72303 0.826923 0.0
-1.74541 0.854545 0.0
-1.74541 0.890909 0.0
-1.74996 1 0.0
-1.73745 0.9625 0.0
-1.71359 0.927273 0.0
-1.68716 0.153846 0.0
-1.7131 0.214286 0.0
-1.70725 0.275 0.0
-1.69712 0.321939 0.0
-1.72279 0.589286 0.0
-1.72261 0.5 0.0
-1.7227 0.544643 0.0
-1.6827 0.355102 0.0
-1.67773 0.428571 0.0
-1.70763 0.464286 0.0
-1.70369 0.62449 0.0
-1.64854 0 0.0
-1.63181 0.0375 0.0
-1.64137 0.142857 0.0
-1.61764 0.0769231 0.0
-1.69458 0.703846 0.0
-1.67471 0.657437 0.0
-1.66143 0.727637 0.0
-1.67125 0.768571 0.0
-1.67851 0.821429 0.0
-1.68841 0.861538 0.0
-1.70904 0.890909 0.0
-1.69995 1 0.0
-1.68176 0.963636 0.0
-1.67267 0.927273 0.0
-1.65427 0.187143 0.0
-1.66718 0.231429 0.0
-1.66554 0.3 0.0
-1.67802 0.571429 0.0
-1.67792 0.523809 0.0
-1.6367 0.366327 0.0
-1.63682 0.423469 0.0
-1.62568 0.502976 0.0
-1.6629 0.470238 0.0
-1.65254 0.618367 0.0
-1.6059 0.307143 0.0
-1.59833 0 0.0
-1.58288 0.0384615 0.0
-1.60563 0.169643 0.0
-1.58179 0.112271 0.0
-1.56964 0.0714286 0.0
-1.64574 0.690385 0.0
-1.62827 0.751429 0.0
-1.63371 0.791071 0.0
-1.64279 0.857143 0.0
-1.65378 0.896154 0.0
-1.64994 1 0.0
-1.6363 0.963636 0.0
-1.61916 0.930769 0.0
-1.61345 0.209107 0.0
-1.62126 0.248571 0.0
-1.56989 0.196429 0.0
-1.63324 0.553571 0.0
-1.58846 0.535714 0.0
-1.59408 0.361905 0.0
-1.59161 0.402211 0.0
-1.58832 0.464286 0.0
-1.61504 0.598581 0.0
-1.59683 0.64359 0.0
-1.57899 0.274107 0.0
-1.56176 0.322381 0.0
-1.54812 0 0.0
-1.53378 0.0357143 0.0
-1.54593 0.147619 0.0
-1.53385 0.0732143 0.0
-1.53393 0.110714 0.0
-1.58522 0.704286 0.0
-1.58709 0.745 0.0
-1.58896 0.785714 0.0
-1.60695 0.830357 0.0
-1.60707 0.892857 0.0
-1.59993 1 0.0
-1.58454 0.965385 0.0
-1.57135 0.928571 0.0
-1.55209 0.241071 0.0
-1.5291 0.198214 0.0
-1.56936 0.570918 0.0
-1.54369 0.517857 0.0
-1.5464 0.380952 0.0
-1.54564 0.427721 0.0
-1.54488 0.47449 0.0
-1.55026 0.606122 0.0
-1.54222 0.677143 0.0
-1.52943 0.282857 0.0
-1.52143 0.33619 0.0
-1.49792 0 0.0
-1.49802 0.05 0.0
-1.49822 0.15 0.0
-1.49312 0.1 0.0
-1.5423 0.717143 0.0
-1.54419 0.767857 0.0
-1.54727 0.819048 0.0
-1.57122 0.861905 0.0
-1.53553 0.914286 0.0
-1.54992 1 0.0
-1.53563 0.964286 0.0
-1.49842 0.25 0.0
-1.48831 0.2 0.0
-1.5214 0.558929 0.0
-1.49891 0.5 0.0
-1.49871 0.4 0.0
-1.47631 0.45 0.0
-1.49911 0.6 0.0
-1.49921 0.65 0.0
-1.49931 0.7 0.0
-1.48111 0.35 0.0
-1.48351 0.3 0.0
-1.44771 0 0.0
-1.44782 0.05 0.0
-1.44804 0.15 0.0
-1.44793 0.1 0.0
-1.49941 0.75 0.0
-1.49951 0.8 0.0
-1.49981 0.95 0.0
-1.49961 0.85 0.0
-1.49971 0.9 0.0
-1.49991 1 0.0
-1.44826 0.25 0.0
-1.43815 0.2 0.0
-1.47151 0.55 0.0
-1.44881 0.5 0.0
-1.44859 0.4 0.0
-1.42619 0.45 0.0
-1.44913 0.65 0.0
-1.44902 0.6 0.0
-1.44935 0.75 0.0
-1.44924 0.7 0.0
-1.43972 0.35 0.0
-1.43336 0.3 0.0
-1.3975 0 0.0
-1.39762 0.05 0.0
-1.39786 0.15 0.0
-1.39274 0.1 0.0
-1.44957 0.85 0.0
-1.44946 0.8 0.0
-1.4523 0.95 0.0
-1.44968 0.9 0.0
-1.4499 1 0.0
-1.3981 0.25 0.0
-1.38798 0.2 0.0
-1.42141 0.55 0.0
-1.3987 0.5 0.0
-1.39834 0.35 0.0
-1.37845 0.4 0.0
-1.37607 0.45 0.0
-1.40784 0.65 0.0
-1.39894 0.6 0.0
-1.41185 0.75 0.0
-1.39918 0.7 0.0
-1.38322 0.3 0.0
-1.34729 0 0.0
-1.34492 0.05 0.0
-1.34018 0.15 0.0
-1.34255 0.1 0.0
-1.40707 0.85 0.0
-1.39941 0.8 0.0
-1.39977 0.95 0.0
-1.39965 0.9 0.0
-1.39989 1 0.0
-1.33781 0.2 0.0
-1.33544 0.25 0.0
-1.37131 0.55 0.0
-1.34859 0.5 0.0
-1.33833 0.4 0.0
-1.3307 0.35 0.0
-1.32595 0.45 0.0
-1.34885 0.6 0.0
-1.36655 0.65 0.0
-1.36179 0.75 0.0
-1.34911 0.7 0.0
-1.33307 0.3 0.0
-1.29708 0 0.0
-1.29722 0.05 0.0
-1.2975 0.15 0.0
-1.29236 0.1 0.0
-1.35703 0.85 0.0
-1.34937 0.8 0.0
-1.34988 1 0.0
-1.34962 0.9 0.0
-1.35226 0.95 0.0
-1.28528 0.25 0.0
-1.28764 0.2 0.0
-1.28931 0.35 0.0
-1.32121 0.55 0.0
-1.29848 0.5 0.0
-1.28709 0.45 0.0
-1.2982 0.4 0.0
-1.29876 0.6 0.0
-1.31647 0.65 0.0
-1.29918 0.75 0.0
-1.29904 0.7 0.0
-1.28292 0.3 0.0
-1.24687 0 0.0
-1.24702 0.05 0.0
-1.24717 0.1 0.0
-1.24732 0.15 0.0
-1.29946 0.85 0.0
-1.29932 0.8 0.0
-1.29987 1 0.0
-1.29974 0.95 0.0
-1.30462 0.9 0.0
-1.24762 0.25 0.0
-1.23747 0.2 0.0
-1.24792 0.35 0.0
-1.22807 0.4 0.0
-1.27111 0.55 0.0
-1.24837 0.5 0.0
-1.24822 0.45 0.0
-1.24867 0.6 0.0
-1.26639 0.65 0.0
-1.26167 0.75 0.0
-1.24897 0.7 0.0
-1.23277 0.3 0.0
-1.19667 0 0.0
-1.19683 0.05 0.0
-1.18964 0.15 0.0
-1.19198 0.1 0.0
-1.25695 0.85 0.0
-1.24927 0.8 0.0
-1.25223 0.95 0.0
-1.24987 1 0.0
-1.24957 0.9 0.0
-1.1873 0.2 0.0
-1.18496 0.25 0.0
-1.18028 0.35 0.0
-1.17794 0.4 0.0
-1.1981 0.45 0.0
-1.19842 0.55 0.0
-1.19826 0.5 0.0
-1.19858 0.6 0.0
-1.19874 0.65 0.0
-1.19906 0.75 0.0
-1.1989 0.7 0.0
-1.18262 0.3 0.0
-1.14646 0 0.0
-1.14663 0.05 0.0
-1.1418 0.1 0.0
-1.13713 0.2 0.0
-1.14697 0.15 0.0
-1.20691 0.85 0.0
-1.20926 0.8 0.0
-1.20221 0.95 0.0
-1.19986 1 0.0
-1.20456 0.9 0.0
-1.13997 0.3 0.0
-1.14731 0.25 0.0
-1.13781 0.4 0.0
-1.13014 0.35 0.0
-1.12548 0.45 0.0
-1.14815 0.5 0.0
-1.15962 0.55 0.0
-1.14849 0.6 0.0
-1.15745 0.65 0.0
-1.16155 0.75 0.0
-1.14917 0.8 0.0
-1.14883 0.7 0.0
-1.09625 0 0.0
-1.09661 0.1 0.0
-1.09393 0.05 0.0
-1.09697 0.2 0.0
-1.08929 0.15 0.0
-1.15687 0.85 0.0
-1.14985 1 0.0
-1.15219 0.95 0.0
-1.14951 0.9 0.0
-1.09733 0.3 0.0
-1.08465 0.25 0.0
-1.09769 0.4 0.0
-1.08 0.35 0.0
-1.08661 0.45 0.0
-1.09804 0.5 0.0
-1.12082 0.55 0.0
-1.10916 0.8 0.0
-1.10629 0.7 0.0
-1.0984 0.6 0.0
-1.11616 0.65 0.0
-1.11149 0.75 0.0
-1.04604 0 0.0
-1.04623 0.05 0.0
-1.04642 0.1 0.0
-1.0468 0.2 0.0
-1.03911 0.15 0.0
-1.09948 0.9 0.0
-1.0993 0.85 0.0
-1.09984 1 0.0
-1.09966 0.95 0.0
-1.04718 0.3 0.0
-1.03449 0.25 0.0
-1.04756 0.4 0.0
-1.02986 0.35 0.0
-1.04775 0.45 0.0
-1.04794 0.5 0.0
-1.04813 0.55 0.0
-1.05911 0.8 0.0
-1.04831 0.6 0.0
-1.06376 0.7 0.0
-1.0485 0.65 0.0
-1.04888 0.75 0.0
-0.995833 0 0.0
-0.991231 0.1 0.0
-0.996033 0.05 0.0
-0.986629 0.2 0.0
-0.98893 0.15 0.0
-1.05447 0.9 0.0
-1.04926 0.85 0.0
-1.04983 1 0.0
-1.04964 0.95 0.0
-0.984328 0.25 0.0
-0.99703 0.3 0.0
-0.997429 0.4 0.0
-0.997628 0.45 0.0
-0.979726 0.35 0.0
-0.997827 0.5 0.0
-0.998027 0.55 0.0
-0.998226 0.6 0.0
-0.961416 0.475 0.0
-1.00907 0.8 0.0
-0.998426 0.65 0.0
-0.998625 0.7 0.0
-1.01138 0.75 0.0
-0.945625 0 0.0
-0.946044 0.1 0.0
-0.943334 0.05 0.0
-0.946463 0.2 0.0
-0.938752 0.15 0.0
-1.00444 0.9 0.0
-1.00675 0.85 0.0
-0.999821 1 0.0
-1.00213 0.95 0.0
-0.93417 0.25 0.0
-0.946881 0.3 0.0
-0.9473 0.4 0.0
-0.929588 0.35 0.0
-0.925005 0.45 0.0
-0.960371 0.525 0.0
-0.959325 0.575 0.0
-0.958279 0.625 0.0
-0.922714 0.5 0.0
-0.959017 0.8 0.0
-0.957233 0.675 0.0
-0.952999 0.7125 0.0
-0.948766 0.75 0.0
-0.895417 0 0.0
-0.895855 0.1 0.0
-0.893136 0.05 0.0
-0.896294 0.2 0.0
-0.888573 0.15 0.0
-0.949184 0.85 0.0
-0.954415 0.9 0.0
-0.949812 1 0.0
-0.949603 0.95 0.0
-0.884011 0.25 0.0
-0.896733 0.3 0.0
-0.874887 0.45 0.0
-0.879449 0.35 0.0
-0.897171 0.4 0.0
-0.920423 0.55 0.0
-0.918132 0.6 0.0
-0.915841 0.65 0.0
-0.872606 0.5 0.0
-0.908968 0.8 0.0
-0.91355 0.7 0.0
-0.898707 0.75 0.0
-0.845208 0 0.0
-0.845438 0.05 0.0
-0.845667 0.1 0.0
-0.845896 0.15 0.0
-0.833853 0.25 0.0
-0.846126 0.2 0.0
-0.899146 0.85 0.0
-0.904386 0.9 0.0
-0.899584 0.95 0.0
-0.899804 1 0.0
-0.838062 0.35 0.0
[...]
POINT_DATA 10839
VECTORS Velocity float
0.21 0 0.0
0.24 0 0.0
0.2275 0 0.0
0.2475 0 0.0
0.25 0 0.0
0.2475 0 0.0
0 0 0.0
0.0475 0 0.0
0.1275 0 0.0
0.09 0 0.0
0.09 0 0.0
0.1275 0 0.0
0.1875 0 0.0
0.16 0 0.0
0.195557 -2.36067e-05 0.0
0.242841 -3.20534e-05 0.0
0.215776 -2.80392e-05 0.0
0.231406 -3.15613e-05 0.0
0.248725 -3.41011e-05 0.0
0.24 0 0.0
0.24284 -3.19604e-05 0.0
0.24852 -3.28364e-05 0.0
0 0 0.0
0.0622239 -4.20434e-06 0.0
0.032227 -2.77974e-06 0.0
0.16 0 0.0
0.1875 0 0.0
0.21 0 0.0
0.2275 0 0.0
0.193592 -2.64642e-05 0.0
0.138887 -1.48065e-05 0.0
0 0 0.0
0.0475 0 0.0
0.0998415 -1.035e-05 0.0
0.0622206 -4.25417e-06 0.0
0.0998462 -1.081e-05 0.0
0.138891 -1.49412e-05 0.0
0.17438 -3.71935e-05 0.0
0.201605 -5.07877e-05 0.0
0.235787 -6.18281e-05 0.0
0.244085 -6.46436e-05 0.0
0.223601 -8.27802e-05 0.0
0.249751 -6.74877e-05 0.0
0.249044 -7.51412e-05 0.0
0.231404 -3.20366e-05 0.0
0.244081 -6.38392e-05 0.0
0 0 0.0
0.036108 -5.33263e-06 0.0
0.0736125 -1.48461e-05 0.0
0.0622488 -1.62202e-05 0.0
0.17437 -3.66181e-05 0.0
0.220162 -5.06616e-05 0.0
0.201595 -5.07974e-05 0.0
0.115549 -2.21164e-05 0.0
0.146676 -3.40943e-05 0.0
0 0 0.0
0.0360874 -3.61667e-06 0.0
0.0693662 -1.16549e-05 0.0
0.0899837 -2.29674e-05 0.0
0.109391 -3.09715e-05 0.0
0.146691 -3.34542e-05 0.0
0.178902 -6.21403e-05 0.0
0.206293 -8.10215e-05 0.0
0.2145 -0.000108883 0.0
0.238526 -9.66335e-05 0.0
0.24735 -0.000100547 0.0
0.229606 -0.000122776 0.0
0.226324 -8.68218e-05 0.0
0.249983 -0.000101001 0.0
0.246426 -9.82615e-05 0.0
0.23668 -9.25594e-05 0.0
0 0 0.0
0.0322504 -6.00292e-06 0.0
0.0956959 -3.50735e-05 0.0
0.0694282 -2.64041e-05 0.0
0.178876 -6.11198e-05 0.0
0.206269 -8.15048e-05 0.0
0.127477 -4.72533e-05 0.0
0.165874 -7.71534e-05 0.0
0.152326 -5.54729e-05 0.0
0 0 0.0
0.0360796 -5.17168e-06 0.0
0.0621961 -1.60691e-05 0.0
0.0956307 -3.57573e-05 0.0
0.127524 -4.7734e-05 0.0
0.15666 -6.91277e-05 0.0
0.115599 -5.46569e-05 0.0
0.193625 -0.000113419 0.0
0.21814 -0.000143209 0.0
0.240939 -0.000130704 0.0
0.247737 -0.000135461 0.0
0.25 -0.000136878 0.0
0.234397 -0.000165515 0.0
0.229577 -0.000120887 0.0
0.247728 -0.000135076 0.0
0.24092 -0.000130314 0.0
0 0 0.0
0.0344866 -8.27719e-06 0.0
0.103119 -5.36004e-05 0.0
0.0623013 -2.67009e-05 0.0
0.189728 -9.64035e-05 0.0
0.21299 -0.000134135 0.0
0.170535 -0.000104218 0.0
0.144331 -7.75452e-05 0.0
0 0 0.0
0.0398984 -8.85152e-06 0.0
0.0997878 -4.88194e-05 0.0
0.0693223 -2.60123e-05 0.0
0.170623 -0.000104538 0.0
0.14442 -7.93471e-05 0.0
0.124375 -8.02681e-05 0.0
0.183648 -0.000131815 0.0
0.20413 -0.00015758 0.0
0.222036 -0.000185247 0.0
0.249109 -0.00017912 0.0
0.244026 -0.000174547 0.0
0.249119 -0.000179221 0.0
0.238549 -0.000210079 0.0
0.234354 -0.000164224 0.0
0.244883 -0.000188584 0.0
0 0 0.0
0.0322908 -8.74555e-06 0.0
0.0940714 -5.62307e-05 0.0
0.0652144 -3.36705e-05 0.0
0.196698 -0.000143647 0.0
0.217873 -0.000176128 0.0
0.177441 -0.00014555 0.0
0.148692 -0.000102001 0.0
0.120331 -7.16659e-05 0.0
0 0 0.0
0.0343913 -8.39028e-06 0.0
0.0716462 -3.38899e-05 0.0
0.152422 -0.000114475 0.0
0.127611 -9.93762e-05 0.0
0.187575 -0.000162992 0.0
0.211948 -0.000202678 0.0
0.248606 -0.000221661 0.0
0.225683 -0.00022936 0.0
0.249782 -0.000223396 0.0
0.246473 -0.000219774 0.0
0.242062 -0.000256657 0.0
0.238491 -0.000209023 0.0
0 0 0.0
0.0338723 -1.09344e-05 0.0
0.0999883 -7.48193e-05 0.0
0.0695401 -4.47294e-05 0.0
0.206263 -0.000189143 0.0
0.222407 -0.000220196 0.0
0.18998 -0.000196086 0.0
0.168258 -0.000158719 0.0
0.143008 -0.0001221 0.0
0.124197 -9.04497e-05 0.0
0.0970873 -6.09807e-05 0.0
0 0 0.0
0.036022 -1.06506e-05 0.0
0.0673181 -3.6247e-05 0.0
0.130329 -0.000119788 0.0
0.168478 -0.00016009 0.0
0.199469 -0.000208555 0.0
0.218375 -0.000244427 0.0
0.241993 -0.000256624 0.0
0.25 -0.00026814 0.0
0.247989 -0.000264857 0.0
0.229078 -0.000275444 0.0
0.244935 -0.000304816 0.0
0.24874 -0.000281301 0.0
0.234447 -0.000262524 0.0
0 0 0.0
0.0362294 -1.40745e-05 0.0
0.122651 -0.000122502 0.0
0.0712222 -5.2824e-05 0.0
0.208354 -0.000230442 0.0
0.22513 -0.000273731 0.0
0.198054 -0.000238728 0.0
0.177732 -0.000198074 0.0
0.146532 -0.000146534 0.0
0.119138 -0.000102798 0.0
0.0970557 -6.90179e-05 0.0
0 0 0.0
0.0349406 -1.19064e-05 0.0
0.0672822 -4.07292e-05 0.0
0.152294 -0.000166996 0.0
0.178012 -0.000203866 0.0
0.210111 -0.000257565 0.0
0.244859 -0.000303865 0.0
0.24942 -0.000312418 0.0
0.232221 -0.000323304 0.0
0.244194 -0.000346219 0.0
0.249988 -0.000368469 0.0
0.249131 -0.000328386 0.0
0.235916 -0.000313263 0.0
0.212956 -0.000313873 0.0
0 0 0.0
0.037157 -1.65659e-05 0.0
0.141101 -0.000170187 0.0
0.0999469 -0.000103179 0.0
0.0665908 -5.14621e-05 0.0
0.213634 -0.000279294 0.0
0.186615 -0.000243108 0.0
0.165093 -0.000198215 0.0
0.122249 -0.000122868 0.0
0.0928729 -7.55264e-05 0.0
0 0 0.0
0.0349116 -1.32707e-05 0.0
0.0642329 -4.32e-05 0.0
0.165589 -0.000213101 0.0
0.18696 -0.000250353 0.0
0.158113 -0.000222743 0.0
0.247092 -0.000354215 0.0
0.248691 -0.000406258 0.0
0.231046 -0.000362687 0.0
0.240521 -0.000386571 0.0
0.248754 -0.000406899 0.0
0.240206 -0.000359556 0.0
0.229262 -0.000352526 0.0
0.199173 -0.000307286 0.0
0.218626 -0.000366815 0.0
0 0 0.0
0.0346438 -1.62421e-05 0.0
0.126156 -0.000165228 0.0
0.0681673 -5.80429e-05 0.0
0.0988058 -0.000112174 0.0
0.208091 -0.000317951 0.0
0.18977 -0.000277564 0.0
0.168137 -0.000230836 0.0
0.14063 -0.000167993 0.0
0.0954186 -8.96113e-05 0.0
0 0 0.0
0.0332565 -1.35625e-05 0.0
0.0660647 -5.13681e-05 0.0
0.183212 -0.000290288 0.0
0.159249 -0.000249088 0.0
0.2449 -0.00041785 0.0
0.249659 -0.00045894 0.0
0.235954 -0.000423737 0.0
0.244852 -0.000447015 0.0
0.249374 -0.000458924 0.0
0.238625 -0.000422066 0.0
0.21843 -0.000380877 0.0
0.203093 -0.000358273 0.0
0.223361 -0.000419198 0.0
0 0 0.0
0.0477968 -3.22199e-05 0.0
0.127904 -0.000188027 0.0
0.0904077 -0.000105194 0.0
0.20262 -0.00034069 0.0
0.177981 -0.000280837 0.0
0.147903 -0.000211736 0.0
0.118733 -0.000139667 0.0
0.0780397 -7.54925e-05 0.0
0 0 0.0
0.034236 -1.59766e-05 0.0
0.187818 -0.000343647 0.0
0.160385 -0.000277027 0.0
0.246453 -0.000476224 0.0
0.249996 -0.000514194 0.0
0.240131 -0.000488614 0.0
0.247569 -0.000536828 0.0
0.239864 -0.000482455 0.0
0.227301 -0.00044604 0.0
0.209743 -0.000396872 0.0
0.227712 -0.000475775 0.0
0.210277 -0.000420744 0.0
0 0 0.0
0.0478575 -3.56881e-05 0.0
0.127995 -0.000209287 0.0
0.090486 -0.000115073 0.0
0.187187 -0.000336648 0.0
0.159638 -0.000265079 0.0
0.0472065 -3.18632e-05 0.0
0.127104 -0.000184715 0.0
0.0896061 -0.00010346 0.0
0 0 0.0
0.187891 -0.000386546 0.0
0.160471 -0.000309993 0.0
0.24742 -0.000538857 0.0
0.249993 -0.000578355 0.0
0.24016 -0.00055121 0.0
0.247583 -0.000603537 0.0
0.227257 -0.00049982 0.0
0.239832 -0.000541075 0.0
0.187117 -0.000376696 0.0
0.209684 -0.000444415 0.0
0.22775 -0.000522934 0.0
0.210339 -0.000473982 0.0
0 0 0.0
0.0479234 -3.84191e-05 0.0
0.128097 -0.000231686 0.0
0.0905917 -0.000127498 0.0
0.127015 -0.000207402 0.0
0.159558 -0.000296895 0.0
0.047149 -3.56832e-05 0.0
0.0895209 -0.000115632 0.0
0 0 0.0
0.187974 -0.00043277 0.0
0.16057 -0.000345708 0.0
0.247401 -0.00060293 0.0
0.24999 -0.000647058 0.0
0.227791 -0.000575088 0.0
0.240205 -0.000646659 0.0
0.247597 -0.00067621 0.0
0.227214 -0.000544725 0.0
0.239796 -0.000603337 0.0
0.187059 -0.000407189 0.0
0.209619 -0.000494432 0.0
0.210409 -0.00053203 0.0
0 0 0.0
0.0479998 -4.14845e-05 0.0
0.12823 -0.000258782 0.0
0.0906993 -0.000138371 0.0
0.126933 -0.000227309 0.0
0.159468 -0.000330303 0.0
0.0470781 -4.04384e-05 0.0
0.0894264 -0.000129195 0.0
0 0 0.0
0.160682 -0.000384074 0.0
0.188095 -0.00049632 0.0
0.247378 -0.000671277 0.0
0.249984 -0.000721036 0.0
0.240234 -0.00070884 0.0
0.227869 -0.000670076 0.0
0.247611 -0.00075416 0.0
0.239754 -0.000668615 0.0
0.227168 -0.000593074 0.0
0.186975 -0.000450678 0.0
0.209546 -0.000546301 0.0
0.210488 -0.000597059 0.0
0 0 0.0
0.0480746 -4.41955e-05 0.0
0.128343 -0.000280767 0.0
0.0908176 -0.000149412 0.0
0.126828 -0.000253371 0.0
0.159369 -0.000366447 0.0
0 0 0.0
0.0893204 -0.00014572 0.0
0.0470052 -4.56719e-05 0.0
0.188206 -0.000557373 0.0
0.16081 -0.00042753 0.0
0.227922 -0.00073639 0.0
0.247351 -0.000744854 0.0
0.249975 -0.000801525 0.0
0.247622 -0.000820976 0.0
0.240265 -0.000775264 0.0
0.239706 -0.000737898 0.0
0.227106 -0.000654079 0.0
0.186859 -0.00050744 0.0
0.209466 -0.000601028 0.0
0.210577 -0.000669294 0.0
0 0 0.0
0.0481565 -4.66055e-05 0.0
0.0909354 -0.000159577 0.0
0.128491 -0.000308756 0.0
0.126695 -0.000286869 0.0
0.159262 -0.000404935 0.0
0 0 0.0
0.0469153 -5.23259e-05 0.0
0.0892163 -0.000162113 0.0
0.188301 -0.000607416 0.0
0.160957 -0.000477635 0.0
0.227977 -0.000810219 0.0
0.24032 -0.000907554 0.0
0.247318 -0.000823815 0.0
0.249962 -0.000888437 0.0
0.247632 -0.000892501 0.0
0.239649 -0.000810702 0.0
0.227035 -0.000717574 0.0
0.186783 -0.000543172 0.0
0.209377 -0.000655983 0.0
0.210678 -0.000753167 0.0
0 0 0.0
0.048245 -4.9204e-05 0.0
0.128688 -0.000348753 0.0
0.0910953 -0.000175741 0.0
0.126587 -0.000314149 0.0
0.159148 -0.000444989 0.0
0.0468222 -5.927e-05 0.0
0 0 0.0
0.0890757 -0.000185031 0.0
0.161126 -0.000537468 0.0
0.188478 -0.000705243 0.0
0.228081 -0.000950002 0.0
0.240362 -0.00101977 0.0
0.247639 -0.000995951 0.0
0.247257 -0.000945618 0.0
0.249943 -0.000985593 0.0
0.239584 -0.000888157 0.0
0.226926 -0.000803787 0.0
0.186648 -0.000601073 0.0
0.20928 -0.000711386 0.0
0.21079 -0.000851301 0.0
0 0 0.0
0.0483393 -5.27189e-05 0.0
0.0912601 -0.000193434 0.0
0.16132 -0.000608906 0.0
0.128855 -0.000385342 0.0
0.126454 -0.000347073 0.0
0.159051 -0.000476894 0.0
0.0467104 -6.81492e-05 0.0
0 0 0.0
0.0889468 -0.000205879 0.0
0.210895 -0.000948539 0.0
0.188602 -0.000779076 0.0
0.240393 -0.00111966 0.0
0.228161 -0.00107953 0.0
0.247643 -0.0011642 0.0
0.249913 -0.00109026 0.0
0.247213 -0.00101671 0.0
0.239505 -0.000966273 0.0
0.226848 -0.000856864 0.0
0.18656 -0.000633952 0.0
0.1589 -0.000521821 0.0
0.209173 -0.000762965 0.0
0 0 0.0
0.0914316 -0.00021846 0.0
0.0484528 -5.8434e-05 0.0
0.161496 -0.00068381 0.0
0.129115 -0.000454678 0.0
0.126313 -0.000378498 0.0
0 0 0.0
0.0465846 -7.72429e-05 0.0
0.0887777 -0.000230711 0.0
0.211011 -0.00106057 0.0
0.18883 -0.00093056 0.0
0.240422 -0.00123023 0.0
0.228247 -0.00123003 0.0
0.247631 -0.00127252 0.0
0.249868 -0.00120689 0.0
0.247162 -0.00109342 0.0
0.158794 -0.000543779 0.0
0.209073 -0.000802252 0.0
0.239408 -0.00104504 0.0
0.22676 -0.000908958 0.0
0.186437 -0.00067189 0.0
0 0 0.0
0.0485702 -6.66171e-05 0.0
0.091649 -0.00025806 0.0
0.161747 -0.000798836 0.0
0.129383 -0.0005381 0.0
0.0886134 -0.000248534 0.0
0.126143 -0.000406784 0.0
0 0 0.0
0.0464396 -8.55695e-05 0.0
0.211155 -0.0012215 0.0
0.189042 -0.00108497 0.0
0.24045 -0.00139102 0.0
0.228331 -0.00140826 0.0
0.247615 -0.001391 0.0
0.249808 -0.00133603 0.0
0.247034 -0.00123962 0.0
0.15866 -0.000560958 0.0
0.239293 -0.00112527 0.0
0.208962 -0.000833915 0.0
0.226592 -0.000986106 0.0
0.186272 -0.00070335 0.0
0 0 0.0
0.0919431 -0.00032176 0.0
0.0487172 -8.40046e-05 0.0
0.162092 -0.000983889 0.0
0.129696 -0.000652325 0.0
0.0884624 -0.000257003 0.0
0.125992 -0.000420292 0.0
0 0 0.0
0.0462888 -9.37537e-05 0.0
0.189275 -0.00127892 0.0
0.211312 -0.00141868 0.0
0.240468 -0.00158206 0.0
0.247575 -0.00155765 0.0
0.228412 -0.00161918 0.0
0.24972 -0.0014761 0.0
0.24691 -0.00135312 0.0
0.239148 -0.00120367 0.0
0.2492 -0.00164946 0.0
0.158517 -0.000558211 0.0
0.226434 -0.00103459 0.0
0.208765 -0.000865738 0.0
0.18616 -0.000706872 0.0
0 0 0.0
0.0922393 -0.000396355 0.0
0.0489139 -0.000105923 0.0
0.162356 -0.00114508 0.0
0.130065 -0.0008034 0.0
0.0882968 -0.000256174 0.0
0.125863 -0.00041578 0.0
0 0 0.0
0.0461432 -9.68698e-05 0.0
0.189531 -0.001518 0.0
0.211474 -0.00165843 0.0
0.24046 -0.00179733 0.0
0.228484 -0.0018733 0.0
0.247461 -0.00184779 0.0
0.24883 -0.0015226 0.0
0.243517 -0.00135569 0.0
0.233264 -0.00116499 0.0
0.249523 -0.00171957 0.0
0.158372 -0.000527581 0.0
0.218068 -0.000966626 0.0
0.203412 -0.000820766 0.0
0.18596 -0.000682497 0.0
0 0 0.0
0.0926403 -0.000505921 0.0
0.0491514 -0.00013545 0.0
0.162723 -0.00139329 0.0
0.130502 -0.000999168 0.0
0.1257 -0.000379273 0.0
0.088144 -0.000239303 0.0
0 0 0.0
0.0459889 -9.31825e-05 0.0
0.189809 -0.00181256 0.0
0.211639 -0.00194709 0.0
0.247335 -0.00207626 0.0
0.228538 -0.00216918 0.0
0.240436 -0.00205468 0.0
0.246644 -0.00154055 0.0
0.238836 -0.00132334 0.0
0.226101 -0.00108954 0.0
0.249329 -0.00190304 0.0
0.158217 -0.000465205 0.0
0.208435 -0.000854945 0.0
0.185768 -0.000630597 0.0
0 0 0.0
0.0494465 -0.00017323 0.0
0.0931321 -0.000644059 0.0
0.130942 -0.00120447 0.0
0.190105 -0.0021649 0.0
0.163138 -0.00169767 0.0
0.125569 -0.000314366 0.0
0.0880137 -0.000204082 0.0
0.045851 -8.58139e-05 0.0
0 0 0.0
0.228567 -0.0024539 0.0
0.2118 -0.00229374 0.0
0.247204 -0.00227917 0.0
0.240366 -0.00235323 0.0
0.225838 -0.00110175 0.0
0.246406 -0.0016678 0.0
0.238573 -0.00139349 0.0
0.249082 -0.00210636 0.0
0.185555 -0.000540683 0.0
0.158028 -0.000336587 0.0
0.20811 -0.00080066 0.0
0 0 0.0
0.0498412 -0.000227268 0.0
0.0938184 -0.000824871 0.0
0.131549 -0.00149402 0.0
0.190337 -0.00247968 0.0
0.163709 -0.00215273 0.0
0.125465 -0.000215398 0.0
0.0879205 -0.00013815 0.0
0.0457472 -6.91203e-05 0.0
0 0 0.0
0.125398 -7.98504e-05 0.0
0.228574 -0.00276388 0.0
0.211999 -0.00284007 0.0
0.240201 -0.00284812 0.0
0.247038 -0.00249845 0.0
0.225386 -0.00109262 0.0
0.238249 -0.0014573 0.0
0.246105 -0.00180597 0.0
0.248757 -0.0023352 0.0
0.185304 -0.000414328 0.0
0.157856 -0.000190197 0.0
0.20779 -0.000728834 0.0
0 0 0.0
0.0503357 -0.000283314 0.0
0.0945925 -0.00102579 0.0
0.132263 -0.00183129 0.0
0.190667 -0.00294568 0.0
0.164254 -0.00259877 0.0
0.0456718 -5.00272e-05 0.0
0.0878863 -6.31361e-05 0.0
0 0 0.0
0.125368 6.06811e-05 0.0
0.228547 -0.00320763 0.0
0.212131 -0.00333221 0.0
0.240007 -0.00325574 0.0
0.246757 -0.00282301 0.0
0.225033 -0.0010803 0.0
0.237849 -0.00151998 0.0
0.248354 -0.00258861 0.0
0.245536 -0.00202606 0.0
0.185082 -0.00029562 0.0
0.157682 -7.40863e-06 0.0
0.207413 -0.000627184 0.0
0 0 0.0
0.0509538 -0.000354993 0.0
0.0955325 -0.00125326 0.0
0.133248 -0.00227695 0.0
0.191101 -0.00362744 0.0
0.212246 -0.00389364 0.0
0.164873 -0.00310762 0.0
0.0456553 -2.19961e-05 0.0
0.0879243 2.97927e-05 0.0
0 0 0.0
0.125383 0.000244454 0.0
0.228442 -0.00388951 0.0
0.239807 -0.0036251 0.0
0.2464 -0.00318547 0.0
0.247984 -0.00280349 0.0
0.224631 -0.00105003 0.0
0.237349 -0.00159205 0.0
0.245017 -0.00219427 0.0
0.157513 0.000208827 0.0
0.184751 -0.000113806 0.0
0.206954 -0.000506051 0.0
0 0 0.0
0.0517423 -0.000438854 0.0
0.0966609 -0.00151133 0.0
0.134269 -0.00271474 0.0
0.191374 -0.00409087 0.0
0.212331 -0.00451037 0.0
0.16558 -0.00367289 0.0
0.0456918 6.2327e-06 0.0
0.0880492 0.000138648 0.0
0 0 0.0
0.157372 0.00039915 0.0
0.08827 0.000260654 0.0
0.12547 0.000472718 0.0
0.22829 -0.00449067 0.0
0.239551 -0.00401681 0.0
0.245719 -0.00378726 0.0
0.247562 -0.00302949 0.0
0.244552 -0.00234521 0.0
0.224053 -0.00100962 0.0
0.236492 -0.00169321 0.0
0.184268 0.000150002 0.0
0.206498 -0.000395103 0.0
0.228133 -0.0050139 0.0
0 0 0.0
0.0526462 -0.000523192 0.0
0.135472 -0.00319168 0.0
0.0979828 -0.00179269 0.0
0.2124 -0.00520693 0.0
0.191873 -0.00493701 0.0
0.166378 -0.00428913 0.0
0.0458094 4.86452e-05 0.0
0 0 0.0
0.183923 0.000311675 0.0
0.157208 0.000643586 0.0
0.12563 0.000668777 0.0
0.045948 8.04761e-05 0.0
0.0885814 0.000377123 0.0
0.239167 -0.00456541 0.0
0.245255 -0.00415501 0.0
0.24689 -0.00336866 0.0
0.24631 -0.00365553 0.0
0.244005 -0.00250115 0.0
0.223354 -0.000977186 0.0
0.23571 -0.00178362 0.0
0.205972 -0.000267428 0.0
0.227913 -0.00558327 0.0
0.0536485 -0.000611421 0.0
0 0 0.0
0.136623 -0.00361984 0.0
0.0995126 -0.00208361 0.0
0.21244 -0.00596144 0.0
0.192189 -0.00549199 0.0
0.167294 -0.00495762 0.0
0 0 0.0
0.183446 0.000540208 0.0
0.157022 0.0009269 0.0
0.125812 0.00083992 0.0
0.0461756 0.000108582 0.0
0.088971 0.000483628 0.0
0.238464 -0.0054409 0.0
0.244739 -0.00454353 0.0
0.245648 -0.00395558 0.0
0.242797 -0.00283551 0.0
0.222548 -0.000941269 0.0
0.234827 -0.00188716 0.0
0.205045 -8.55767e-05 0.0
0.227609 -0.00634133 0.0
0 0 0.0
0.0548863 -0.000705826 0.0
0.138162 -0.00415176 0.0
0.101099 -0.00236376 0.0
0.168325 -0.00566187 0.0
0.21246 -0.00678921 0.0
0.19279 -0.0064794 0.0
0 0 0.0
0 0 0.0
0.182895 0.00074413 0.0
0.156895 0.00114062 0.0
0.126103 0.00101092 0.0
0.0894549 0.000571498 0.0
0.0464617 0.000132492 0.0
0.23784 -0.00613794 0.0
0.243948 -0.00510616 0.0
0.234002 -0.00199286 0.0
0.244656 -0.00440426 0.0
0.241765 -0.0031212 0.0
0.221603 -0.000928008 0.0
0.204198 4.04412e-05 0.0
0.237265 -0.00675392 0.0
0.227217 -0.0071682 0.0
0.056318 -0.000811464 0.0
0.103081 -0.00268693 0.0
0.139912 -0.00471915 0.0
0.169269 -0.00627242 0.0
0.212473 -0.00767523 0.0
0.193178 -0.00713307 0.0
0 0 0.0
0 0 0.0
0.156797 0.00128957 0.0
0.182168 0.000971351 0.0
0.0899458 0.00063491 0.0
0.126502 0.00116312 0.0
0.0467649 0.000150384 0.0
0.242594 -0.00599795 0.0
0.243497 -0.00491056 0.0
0.203269 0.000141334 0.0
0.233091 -0.00210821 0.0
0.240882 -0.00337177 0.0
0.220131 -0.000943656 0.0
0.236626 -0.00738689 0.0
0.22661 -0.00839636 0.0
0.212464 -0.00863845 0.0
0.0579965 -0.000938956 0.0
0.105308 -0.00303935 0.0
0.142197 -0.00540574 0.0
0.170568 -0.00705879 0.0
0.193925 -0.00828084 0.0
0 0 0.0
0 0 0.0
0.156696 0.00145228 0.0
0.181533 0.00109186 0.0
0.090619 0.000673527 0.0
0.126925 0.00124066 0.0
0.0471449 0.000163536 0.0
0.239893 -0.00364894 0.0
0.242195 -0.00545988 0.0
0.241465 -0.0067186 0.0
0.202241 0.000207827 0.0
0.231813 -0.00229637 0.0
0.218864 -0.00101033 0.0
0.180886 0.00115638 0.0
0.235325 -0.00863266 0.0
0 0 0.0
0.226044 -0.00941819 0.0
0.194607 -0.00928893 0.0
0.212446 -0.00967075 0.0
0.059728 -0.00105254 0.0
0.144133 -0.00595983 0.0
0.108064 -0.00346694 0.0
0.172345 -0.00810024 0.0
0 0 0.0
0 0 0.0
0 0 0.0
0 0 0.0
0 0 0.0
0.0474967 0.000161933 0.0
0.127413 0.00125484 0.0
0.156652 0.00150631 0.0
0.0911691 0.000669363 0.0
0.238472 -0.00403334 0.0
0.240718 -0.00607998 0.0
0.240212 -0.00750081 0.0
0.217722 -0.00107815 0.0
0.201112 0.000219996 0.0
0.229751 -0.00262653 0.0
0.200099 0.000186902 0.0
0.180377 0.00116034 0.0
0.234229 -0.00963668 0.0
0.225419 -0.0105047 0.0
0 0 0.0
7.99406e-05 -2.24916e-05 0.0
0 0 0.0
-0.000507067 0.00364046 0.0
0.212438 -0.0108006 0.0
0.195186 -0.0100847 0.0
0.0618724 -0.00120374 0.0
0.146592 -0.00665122 0.0
0.110866 -0.00390009 0.0
0.174048 -0.00905026 0.0
0 0 0.0
0 0 0.0
0 0 0.0
-0.000406678 0.0022239 0.0
-9.82095e-05 4.57441e-05 0.0
-0.000130747 0.000109477 0.0
0 0 0.0
0.0478184 0.000142076 0.0
0.127825 0.00121755 0.0
0.156631 0.00147732 0.0
0.0918328 0.000618169 0.0
0.236884 -0.00448504 0.0
0.239069 -0.00676149 0.0
0.238792 -0.00835138 0.0
0.216498 -0.00119328 0.0
0.228425 -0.00287525 0.0
0.199036 0.000111612 0.0
0.179542 0.00105119 0.0
0.233022 -0.0107133 0.0
0.227245 -0.0114132 0.0
0.219123 -0.0117659 0.0
0 0 0.0
-2.39044e-05 7.63098e-05 0.0
0 0 0.0
0 0 0.0
-0.00173458 0.00761595 0.0
-0.0018082 0.00537883 0.0
0.208694 -0.0117634 0.0
0.196024 -0.0112388 0.0
0.113657 -0.0043431 0.0
0.0640684 -0.001379 0.0
0.149315 -0.00743318 0.0
0.175909 -0.0100914 0.0
0 0 0.0
-0.000807211 0.0014052 0.0
-0.00133866 0.00311784 0.0
-0.000647914 0.000724965 0.0
-0.000761892 0.000588044 0.0
0 0 0.0
0.0481118 0.000113645 0.0
0.128328 0.0010951 0.0
0.15664 0.00136407 0.0
0.0923973 0.000521651 0.0
0.235112 -0.00498813 0.0
0.237239 -0.00750478 0.0
0.237206 -0.00927663 0.0
0.214295 -0.00146729 0.0
0.226996 -0.00314222 0.0
0.197734 -7.33326e-05 0.0
0.156715 0.00112534 0.0
0.1789 0.000840492 0.0
0.231952 -0.0116303 0.0
0.224213 -0.012531 0.0
0.212399 -0.0129748 0.0
0 0 0.0
-0.000651614 0.000276769 0.0
0 0 0.0
0 0 0.0
0 0 0.0
0 0 0.0
-0.00341801 0.00566125 0.0
-0.000432065 0.00620927 0.0
-0.00167937 0.00945698 0.0
-0.00401614 0.0121987 0.0
-0.00360809 0.00879515 0.0
0 0 0.0
1.15909e-05 0.00799618 0.0
0.197173 -0.0128726 0.0
0.177556 -0.0110398 0.0
0 0 0.0
0.06684 -0.00163037 0.0
0.117085 -0.00492611 0.0
0.152812 -0.00854262 0.0
0 0 0.0
0 0 0.0
-0.00229279 0.00305484 0.0
-0.00199815 0.00182922 0.0
-0.00209625 0.00117944 0.0
0 0 0.0
0.0483307 6.72937e-05 0.0
0.128883 0.000844182 0.0