# vtk DataFile Version 3.0
Mesh NS-CD Problem
ASCII
DATASET UNSTRUCTURED_GRID
POINTS 10839 float
-2 0.3 0.0
-2 0.4 0.0
-2 0.35 0.0
-2 0.45 0.0
-2 0.5 0.0
-2 0.55 0.0
-2 0 0.0
-2 0.05 0.0
-2 0.85 0.0
-2 0.9 0.0
-2 0.1 0.0
-2 0.15 0.0
-2 0.25 0.0
-2 0.2 0.0
-1.96653 0.266667 0.0
-1.96524 0.415385 0.0
-1.96485 0.315 0.0
-1.96348 0.363636 0.0
-1.96414 0.464286 0.0
-2 0.6 0.0
-1.96538 0.584615 0.0
-1.96538 0.538462 0.0
-1.94979 0 0.0
-1.96653 0.0666666 0.0
-1.93306 0.0333333 0.0
-2 0.8 0.0
-2 0.75 0.0
-2 0.7 0.0
-2 0.65 0.0
-1.96249 0.7375 0.0
-1.96666 0.833333 0.0
-2 1 0.0
-2 0.95 0.0
-1.96249 0.8875 0.0
-1.96666 0.933333 0.0
-1.96234 0.1125 0.0
-1.96653 0.166667 0.0
-1.93724 0.225 0.0
-1.92971 0.28 0.0
-1.93048 0.380769 0.0
-1.93048 0.423077 0.0
-1.89958 0.3375 0.0
-1.9292 0.484203 0.0
-1.92117 0.530907 0.0
-1.96363 0.636364 0.0
-1.93076 0.576923 0.0
-1.89958 0 0.0
-1.88703 0.0375 0.0
-1.90963 0.08 0.0
-1.86611 0.0666666 0.0
-1.93749 0.775 0.0
-1.93635 0.672727 0.0
-1.92999 0.72 0.0
-1.93332 0.866667 0.0
-1.92856 0.821429 0.0
-1.94999 1 0.0
-1.92499 0.9625 0.0
-1.92499 0.925 0.0
-1.89998 0.9 0.0
-1.89958 0.125 0.0
-1.92827 0.178571 0.0
-1.89958 0.233333 0.0
-1.89045 0.290909 0.0
-1.86096 0.311538 0.0
-1.89241 0.392857 0.0
-1.89334 0.448489 0.0
-1.85655 0.357143 0.0
-1.89614 0.653846 0.0
-1.89427 0.504121 0.0
-1.8952 0.559753 0.0
-1.89614 0.615385 0.0
-1.84937 0 0.0
-1.83264 0.0333333 0.0
-1.85655 0.107143 0.0
-1.81172 0.075 0.0
-1.89998 0.766667 0.0
-1.89089 0.709091 0.0
-1.87498 0.85 0.0
-1.85998 0.79 0.0
-1.88748 0.8125 0.0
-1.89998 1 0.0
-1.88748 0.9625 0.0
-1.86664 0.933333 0.0
-1.85712 0.892857 0.0
-1.87448 0.15 0.0
-1.86611 0.194444 0.0
-1.83264 0.133333 0.0
-1.83264 0.2625 0.0
-1.82068 0.321429 0.0
-1.85664 0.404762 0.0
-1.85674 0.452381 0.0
-1.85683 0.5 0.0
-1.81184 0.375 0.0
-1.85712 0.642857 0.0
-1.85693 0.547619 0.0
-1.85702 0.595238 0.0
-1.79917 0 0.0
-1.78482 0.0357143 0.0
-1.79917 0.116667 0.0
-1.76569 0.0666666 0.0
-1.85452 0.745455 0.0
-1.82689 0.692308 0.0
-1.81815 0.781818 0.0
-1.82497 0.825 0.0
-1.84997 1 0.0
-1.8333 0.958333 0.0
-1.81247 0.8875 0.0
-1.81247 0.925 0.0
-1.81742 0.218182 0.0
-1.82427 0.175 0.0
-1.77634 0.145455 0.0
-1.79144 0.242308 0.0
-1.78482 0.285714 0.0
-1.77469 0.332653 0.0
-1.81215 0.529762 0.0
-1.81194 0.422619 0.0
-1.81203 0.470238 0.0
-1.76714 0.392857 0.0
-1.81234 0.625 0.0
-1.79732 0.571429 0.0
-1.74896 0 0.0
-1.73222 0.0333333 0.0
-1.75398 0.105 0.0
-1.71883 0.07 0.0
-1.79227 0.730769 0.0
-1.78007 0.679121 0.0
-1.75765 0.769231 0.0
-1.78178 0.818182 0.0
-1.78996 0.86 0.0
-1.79996 1 0.0
-1.78568 0.964286 0.0
-1.76663 0.922222 0.0
-1.76569 0.1875 0.0
-1.73222 0.15 0.0
-1.74896 0.25 0.0
-1.73714 0.304762 0.0
-1.76743 0.537202 0.0
-1.72869 0.343878 0.0
-1.76732 0.485119 0.0
-1.76723 0.440476 0.0
-1.72243 0.410714 0.0
-1.76757 0.607143 0.0
-1.69875 0 0.0
-1.68369 0.035 0.0
-1.69875 0.1125 0.0
-1.66528 0.075 0.0
-1.74341 0.708974 0.0
-1.73324 0.665934 0.0
-1.70441 0.74478 0.0
-1.71423 0.785714 0.0
-1.72303 0.826923 0.0
-1.74541 0.854545 0.0
-1.74541 0.890909 0.0
-1.74996 1 0.0
-1.73745 0.9625 0.0
-1.71359 0.927273 0.0
-1.68716 0.153846 0.0
-1.7131 0.214286 0.0
-1.70725 0.275 0.0
-1.69712 0.321939 0.0
-1.72279 0.589286 0.0
-1.72261 0.5 0.0
-1.7227 0.544643 0.0
-1.6827 0.355102 0.0
-1.67773 0.428571 0.0
-1.70763 0.464286 0.0
-1.70369 0.62449 0.0
-1.64854 0 0.0
-1.63181 0.0375 0.0
-1.64137 0.142857 0.0
-1.61764 0.0769231 0.0
-1.69458 0.703846 0.0
-1.67471 0.657437 0.0
-1.66143 0.727637 0.0
-1.67125 0.768571 0.0
-1.67851 0.821429 0.0
-1.68841 0.861538 0.0
-1.70904 0.890909 0.0
-1.69995 1 0.0
-1.68176 0.963636 0.0
-1.67267 0.927273 0.0
-1.65427 0.187143 0.0
-1.66718 0.231429 0.0
-1.66554 0.3 0.0
-1.67802 0.571429 0.0
-1.67792 0.523809 0.0
-1.6367 0.366327 0.0
-1.63682 0.423469 0.0
-1.62568 0.502976 0.0
-1.6629 0.470238 0.0
-1.65254 0.618367 0.0
-1.6059 0.307143 0.0
-1.59833 0 0.0
-1.58288 0.0384615 0.0
-1.60563 0.169643 0.0
-1.58179 0.112271 0.0
-1.56964 0.0714286 0.0
-1.64574 0.690385 0.0
-1.62827 0.751429 0.0
-1.63371 0.791071 0.0
-1.64279 0.857143 0.0
-1.65378 0.896154 0.0
-1.64994 1 0.0
-1.6363 0.963636 0.0
-1.61916 0.930769 0.0
-1.61345 0.209107 0.0
-1.62126 0.248571 0.0
-1.56989 0.196429 0.0
-1.63324 0.553571 0.0
-1.58846 0.535714 0.0
-1.59408 0.361905 0.0
-1.59161 0.402211 0.0
-1.58832 0.464286 0.0
-1.61504 0.598581 0.0
-1.59683 0.64359 0.0
-1.57899 0.274107 0.0
-1.56176 0.322381 0.0
-1.54812 0 0.0
-1.53378 0.0357143 0.0
-1.54593 0.147619 0.0
-1.53385 0.0732143 0.0
-1.53393 0.110714 0.0
-1.58522 0.704286 0.0
-1.58709 0.745 0.0
-1.58896 0.785714 0.0
-1.60695 0.830357 0.0
-1.60707 0.892857 0.0
-1.59993 1 0.0
-1.58454 0.965385 0.0
-1.57135 0.928571 0.0
-1.55209 0.241071 0.0
-1.5291 0.198214 0.0
-1.56936 0.570918 0.0
-1.54369 0.517857 0.0
-1.5464 0.380952 0.0
-1.54564 0.427721 0.0
-1.54488 0.47449 0.0
-1.55026 0.606122 0.0
-1.54222 0.677143 0.0
-1.52943 0.282857 0.0
-1.52143 0.33619 0.0
-1.49792 0 0.0
-1.49802 0.05 0.0
-1.49822 0.15 0.0
-1.49312 0.1 0.0
-1.5423 0.717143 0.0
-1.54419 0.767857 0.0
-1.54727 0.819048 0.0
-1.57122 0.861905 0.0
-1.53553 0.914286 0.0
-1.54992 1 0.0
-1.53563 0.964286 0.0
-1.49842 0.25 0.0
-1.48831 0.2 0.0
-1.5214 0.558929 0.0
-1.49891 0.5 0.0
-1.49871 0.4 0.0
-1.47631 0.45 0.0
-1.49911 0.6 0.0
-1.49921 0.65 0.0
-1.49931 0.7 0.0
-1.48111 0.35 0.0
-1.48351 0.3 0.0
-1.44771 0 0.0
-1.44782 0.05 0.0
-1.44804 0.15 0.0
-1.44793 0.1 0.0
-1.49941 0.75 0.0
-1.49951 0.8 0.0
-1.49981 0.95 0.0
-1.49961 0.85 0.0
-1.49971 0.9 0.0
-1.49991 1 0.0
-1.44826 0.25 0.0
-1.43815 0.2 0.0
-1.47151 0.55 0.0
-1.44881 0.5 0.0
-1.44859 0.4 0.0
-1.42619 0.45 0.0
-1.44913 0.65 0.0
-1.44902 0.6 0.0
-1.44935 0.75 0.0
-1.44924 0.7 0.0
-1.43972 0.35 0.0
-1.43336 0.3 0.0
-1.3975 0 0.0
-1.39762 0.05 0.0
-1.39786 0.15 0.0
-1.39274 0.1 0.0
-1.44957 0.85 0.0
-1.44946 0.8 0.0
-1.4523 0.95 0.0
-1.44968 0.9 0.0
-1.4499 1 0.0
-1.3981 0.25 0.0
-1.38798 0.2 0.0
-1.42141 0.55 0.0
-1.3987 0.5 0.0
-1.39834 0.35 0.0
-1.37845 0.4 0.0
-1.37607 0.45 0.0
-1.40784 0.65 0.0
-1.39894 0.6 0.0
-1.41185 0.75 0.0
-1.39918 0.7 0.0
-1.38322 0.3 0.0
-1.34729 0 0.0
-1.34492 0.05 0.0
-1.34018 0.15 0.0
-1.34255 0.1 0.0
-1.40707 0.85 0.0
-1.39941 0.8 0.0
-1.39977 0.95 0.0
-1.39965 0.9 0.0
-1.39989 1 0.0
-1.33781 0.2 0.0
-1.33544 0.25 0.0
-1.37131 0.55 0.0
-1.34859 0.5 0.0
-1.33833 0.4 0.0
-1.3307 0.35 0.0
-1.32595 0.45 0.0
-1.34885 0.6 0.0
-1.36655 0.65 0.0
-1.36179 0.75 0.0
-1.34911 0.7 0.0
-1.33307 0.3 0.0
-1.29708 0 0.0
-1.29722 0.05 0.0
-1.2975 0.15 0.0
-1.29236 0.1 0.0
-1.35703 0.85 0.0
-1.34937 0.8 0.0
-1.34988 1 0.0
-1.34962 0.9 0.0
-1.35226 0.95 0.0
-1.28528 0.25 0.0
-1.28764 0.2 0.0
-1.28931 0.35 0.0
-1.32121 0.55 0.0
-1.29848 0.5 0.0
-1.28709 0.45 0.0
-1.2982 0.4 0.0
-1.29876 0.6 0.0
-1.31647 0.65 0.0
-1.29918 0.75 0.0
-1.29904 0.7 0.0
-1.28292 0.3 0.0
-1.24687 0 0.0
-1.24702 0.05 0.0
-1.24717 0.1 0.0
-1.24732 0.15 0.0
-1.29946 0.85 0.0
-1.29932 0.8 0.0
-1.29987 1 0.0
-1.29974 0.95 0.0
-1.30462 0.9 0.0
-1.24762 0.25 0.0
-1.23747 0.2 0.0
-1.24792 0.35 0.0
-1.22807 0.4 0.0
-1.27111 0.55 0.0
-1.24837 0.5 0.0
-1.24822 0.45 0.0
-1.24867 0.6 0.0
-1.26639 0.65 0.0
-1.26167 0.75 0.0
-1.24897 0.7 0.0
-1.23277 0.3 0.0
-1.19667 0 0.0
-1.19683 0.05 0.0
-1.18964 0.15 0.0
-1.19198 0.1 0.0
-1.25695 0.85 0.0
-1.24927 0.8 0.0
-1.25223 0.95 0.0
-1.24987 1 0.0
-1.24957 0.9 0.0
-1.1873 0.2 0.0
-1.18496 0.25 0.0
-1.18028 0.35 0.0
-1.17794 0.4 0.0
-1.1981 0.45 0.0
-1.19842 0.55 0.0
-1.19826 0.5 0.0
-1.19858 0.6 0.0
-1.19874 0.65 0.0
-1.19906 0.75 0.0
-1.1989 0.7 0.0
-1.18262 0.3 0.0
-1.14646 0 0.0
-1.14663 0.05 0.0
-1.1418 0.1 0.0
-1.13713 0.2 0.0
-1.14697 0.15 0.0
-1.20691 0.85 0.0
-1.20926 0.8 0.0
-1.20221 0.95 0.0
-1.19986 1 0.0
-1.20456 0.9 0.0
-1.13997 0.3 0.0
-1.14731 0.25 0.0
-1.13781 0.4 0.0
-1.13014 0.35 0.0
-1.12548 0.45 0.0
-1.14815 0.5 0.0
-1.15962 0.55 0.0
-1.14849 0.6 0.0
-1.15745 0.65 0.0
-1.16155 0.75 0.0
-1.14917 0.8 0.0
-1.14883 0.7 0.0
-1.09625 0 0.0
-1.09661 0.1 0.0
-1.09393 0.05 0.0
-1.09697 0.2 0.0
-1.08929 0.15 0.0
-1.15687 0.85 0.0
-1.14985 1 0.0
-1.15219 0.95 0.0
-1.14951 0.9 0.0
-1.09733 0.3 0.0
-1.08465 0.25 0.0
-1.09769 0.4 0.0
-1.08 0.35 0.0
-1.08661 0.45 0.0
-1.09804 0.5 0.0
-1.12082 0.55 0.0
-1.10916 0.8 0.0
-1.10629 0.7 0.0
-1.0984 0.6 0.0
-1.11616 0.65 0.0
-1.11149 0.75 0.0
-1.04604 0 0.0
-1.04623 0.05 0.0
-1.04642 0.1 0.0
-1.0468 0.2 0.0
-1.03911 0.15 0.0
-1.09948 0.9 0.0
-1.0993 0.85 0.0
-1.09984 1 0.0
-1.09966 0.95 0.0
-1.04718 0.3 0.0
-1.03449 0.25 0.0
-1.04756 0.4 0.0
-1.02986 0.35 0.0
-1.04775 0.45 0.0
-1.04794 0.5 0.0
-1.04813 0.55 0.0
-1.05911 0.8 0.0
-1.04831 0.6 0.0
-1.06376 0.7 0.0
-1.0485 0.65 0.0
-1.04888 0.75 0.0
-0.995833 0 0.0
-0.991231 0.1 0.0
-0.996033 0.05 0.0
-0.986629 0.2 0.0
-0.98893 0.15 0.0
-1.05447 0.9 0.0
-1.04926 0.85 0.0
-1.04983 1 0.0
-1.04964 0.95 0.0
-0.984328 0.25 0.0
-0.99703 0.3 0.0
-0.997429 0.4 0.0
-0.997628 0.45 0.0
-0.979726 0.35 0.0
-0.997827 0.5 0.0
-0.998027 0.55 0.0
-0.998226 0.6 0.0
-0.961416 0.475 0.0
-1.00907 0.8 0.0
-0.998426 0.65 0.0
-0.998625 0.7 0.0
-1.01138 0.75 0.0
-0.945625 0 0.0
-0.946044 0.1 0.0
-0.943334 0.05 0.0
-0.946463 0.2 0.0
-0.938752 0.15 0.0
-1.00444 0.9 0.0
-1.00675 0.85 0.0
-0.999821 1 0.0
-1.00213 0.95 0.0
-0.93417 0.25 0.0
-0.946881 0.3 0.0
-0.9473 0.4 0.0
-0.929588 0.35 0.0
-0.925005 0.45 0.0
-0.960371 0.525 0.0
-0.959325 0.575 0.0
-0.958279 0.625 0.0
-0.922714 0.5 0.0
-0.959017 0.8 0.0
-0.957233 0.675 0.0
-0.952999 0.7125 0.0
-0.948766 0.75 0.0
-0.895417 0 0.0
-0.895855 0.1 0.0
-0.893136 0.05 0.0
-0.896294 0.2 0.0
-0.888573 0.15 0.0
-0.949184 0.85 0.0
-0.954415 0.9 0.0
-0.949812 1 0.0
-0.949603 0.95 0.0
-0.884011 0.25 0.0
-0.896733 0.3 0.0
-0.874887 0.45 0.0
-0.879449 0.35 0.0
-0.897171 0.4 0.0
-0.920423 0.55 0.0
-0.918132 0.6 0.0
-0.915841 0.65 0.0
-0.872606 0.5 0.0
-0.908968 0.8 0.0
-0.91355 0.7 0.0
-0.898707 0.75 0.0
-0.845208 0 0.0
-0.845438 0.05 0.0
-0.845667 0.1 0.0
-0.845896 0.15 0.0
-0.833853 0.25 0.0
-0.846126 0.2 0.0
-0.899146 0.85 0.0
-0.904386 0.9 0.0
-0.899584 0.95 0.0
-0.899804 1 0.0
-0.838062 0.35 0.0
[...]
POINT_DATA 10839
VECTORS Velocity float
0.21 0 0.0
0.24 0 0.0
0.2275 0 0.0
0.2475 0 0.0
0.25 0 0.0
0.2475 0 0.0
0 0 0.0
0.0475 0 0.0
0.1275 0 0.0
0.09 0 0.0
0.09 0 0.0
0.1275 0 0.0
0.1875 0 0.0
0.16 0 0.0
0.195557 -2.44033e-05 0.0
0.242841 -3.32691e-05 0.0
0.215776 -2.90379e-05 0.0
0.231406 -3.27285e-05 0.0
0.248725 -3.54194e-05 0.0
0.24 0 0.0
0.24284 -3.31949e-05 0.0
0.24852 -3.41107e-05 0.0
0 0 0.0
0.0622239 -4.26618e-06 0.0
0.032227 -2.82065e-06 0.0
0.16 0 0.0
0.1875 0 0.0
0.21 0 0.0
0.2275 0 0.0
0.193592 -2.73922e-05 0.0
0.138887 -1.52245e-05 0.0
0 0 0.0
0.0475 0 0.0
0.0998414 -1.05838e-05 0.0
0.0622205 -4.31411e-06 0.0
0.0998462 -1.10582e-05 0.0
0.138891 -1.53592e-05 0.0
0.17438 -3.84647e-05 0.0
0.201606 -5.26681e-05 0.0
0.235787 -6.42815e-05 0.0
0.244085 -6.72565e-05 0.0
0.223602 -8.61651e-05 0.0
0.249751 -7.0265e-05 0.0
0.249044 -7.82929e-05 0.0
0.231404 -3.32593e-05 0.0
0.244081 -6.64619e-05 0.0
0 0 0.0
0.0361083 -5.4539e-06 0.0
0.0736129 -1.52361e-05 0.0
0.0622496 -1.66961e-05 0.0
0.17437 -3.79011e-05 0.0
0.220162 -5.26419e-05 0.0
0.201594 -5.27475e-05 0.0
0.115548 -2.27474e-05 0.0
0.146676 -3.52256e-05 0.0
0 0 0.0
0.0360873 -3.67538e-06 0.0
0.0693659 -1.19154e-05 0.0
0.0899832 -2.36341e-05 0.0
0.109391 -3.19578e-05 0.0
0.146692 -3.45426e-05 0.0
0.178902 -6.44833e-05 0.0
0.206293 -8.42902e-05 0.0
0.214501 -0.000113567 0.0
0.238527 -0.000100742 0.0
0.24735 -0.000104898 0.0
0.229607 -0.000128218 0.0
0.226323 -9.05358e-05 0.0
0.249983 -0.000105416 0.0
0.246426 -0.000102562 0.0
0.23668 -9.65719e-05 0.0
0 0 0.0
0.032251 -6.16604e-06 0.0
0.0956971 -3.62956e-05 0.0
0.0694301 -2.73607e-05 0.0
0.178876 -6.35048e-05 0.0
0.206269 -8.49296e-05 0.0
0.127476 -4.89843e-05 0.0
0.165873 -8.03646e-05 0.0
0.152325 -5.75647e-05 0.0
0 0 0.0
0.0360793 -5.28256e-06 0.0
0.0621953 -1.65202e-05 0.0
0.0956294 -3.69853e-05 0.0
0.127525 -4.94546e-05 0.0
0.156661 -7.18199e-05 0.0
0.115601 -5.67809e-05 0.0
0.193627 -0.000118403 0.0
0.218142 -0.000149804 0.0
0.24094 -0.000136607 0.0
0.247738 -0.000141669 0.0
0.25 -0.000143215 0.0
0.234398 -0.000173405 0.0
0.229576 -0.000126452 0.0
0.247727 -0.000141359 0.0
0.240919 -0.00013637 0.0
0 0 0.0
0.034488 -8.54043e-06 0.0
0.103122 -5.57952e-05 0.0
0.0623042 -2.77215e-05 0.0
0.189727 -0.000100638 0.0
0.212988 -0.000140543 0.0
0.170533 -0.00010899 0.0
0.144329 -8.09098e-05 0.0
0 0 0.0
0.0398976 -9.09438e-06 0.0
0.0997854 -5.07273e-05 0.0
0.0693204 -2.69149e-05 0.0
0.170625 -0.000109107 0.0
0.144422 -8.26558e-05 0.0
0.124378 -8.38257e-05 0.0
0.18365 -0.000137912 0.0
0.204132 -0.000165097 0.0
0.222039 -0.00019437 0.0
0.249109 -0.000188011 0.0
0.244027 -0.000183001 0.0
0.24912 -0.000188018 0.0
0.238551 -0.000220752 0.0
0.234352 -0.000172393 0.0
0.244882 -0.000198195 0.0
0 0 0.0
0.0322929 -9.04757e-06 0.0
0.0940755 -5.86619e-05 0.0
0.065219 -3.50769e-05 0.0
0.196695 -0.000150807 0.0
0.217871 -0.000185262 0.0
0.177437 -0.000153078 0.0
0.148689 -0.000106836 0.0
0.120328 -7.48092e-05 0.0
0 0 0.0
0.0343901 -8.62557e-06 0.0
0.071643 -3.51935e-05 0.0
0.152425 -0.000119809 0.0
0.127616 -0.000104098 0.0
0.187579 -0.000171028 0.0
0.211952 -0.00021301 0.0
0.248605 -0.000233383 0.0
0.225686 -0.000241321 0.0
0.249783 -0.000235072 0.0
0.246474 -0.000231113 0.0
0.242065 -0.000270453 0.0
0.23849 -0.000220142 0.0
0 0 0.0
0.0338756 -1.13437e-05 0.0
0.0999949 -7.83651e-05 0.0
0.0695473 -4.67182e-05 0.0
0.206259 -0.00019945 0.0
0.222404 -0.000232482 0.0
0.189974 -0.000207267 0.0
0.168252 -0.000167416 0.0
0.143002 -0.000128443 0.0
0.124193 -9.47925e-05 0.0
0.0970826 -6.36879e-05 0.0
0 0 0.0
0.0360198 -1.09887e-05 0.0
0.0673132 -3.77263e-05 0.0
0.130336 -0.000125813 0.0
0.168484 -0.000168203 0.0
0.199474 -0.000219406 0.0
0.218379 -0.000257474 0.0
0.241992 -0.000271124 0.0
0.25 -0.000283001 0.0
0.247988 -0.000279706 0.0
0.229082 -0.000290513 0.0
0.244938 -0.00032205 0.0
0.248741 -0.000296964 0.0
0.234445 -0.000277795 0.0
0 0 0.0
0.0362344 -1.46298e-05 0.0
0.122661 -0.00012891 0.0
0.0712321 -5.52743e-05 0.0
0.208348 -0.00024394 0.0
0.225125 -0.000290298 0.0
0.198046 -0.000253277 0.0
0.177723 -0.000209762 0.0
0.146524 -0.000154714 0.0
0.11913 -0.000108114 0.0
0.0970493 -7.22583e-05 0.0
0 0 0.0
0.0349373 -1.23079e-05 0.0
0.0672755 -4.24869e-05 0.0
0.152303 -0.000175849 0.0
0.178019 -0.000214691 0.0
0.210117 -0.000271562 0.0
0.244858 -0.000321972 0.0
0.24942 -0.000330755 0.0
0.232227 -0.000341727 0.0
0.244198 -0.000366385 0.0
0.249988 -0.000391048 0.0
0.249132 -0.00034752 0.0
0.235912 -0.000332678 0.0
0.212965 -0.000331584 0.0
0 0 0.0
0.0371638 -1.72396e-05 0.0
0.141113 -0.00017942 0.0
0.0999612 -0.000108544 0.0
0.0666032 -5.38817e-05 0.0
0.213627 -0.00029679 0.0
0.186605 -0.00025841 0.0
0.165082 -0.000210326 0.0
0.122238 -0.000129662 0.0
0.0928634 -7.92738e-05 0.0
0 0 0.0
0.0349072 -1.37469e-05 0.0
0.0642237 -4.5134e-05 0.0
0.1656 -0.000224788 0.0
0.18697 -0.000264154 0.0
0.158127 -0.000235187 0.0
0.247091 -0.000376255 0.0
0.248691 -0.000432407 0.0
0.231053 -0.000383703 0.0
0.240527 -0.000409475 0.0
0.248758 -0.000432036 0.0
0.240202 -0.000382705 0.0
0.229255 -0.000376009 0.0
0.199184 -0.000324611 0.0
0.218636 -0.000387908 0.0
0 0 0.0
0.0346518 -1.69188e-05 0.0
0.126174 -0.000174393 0.0
0.0681824 -6.08908e-05 0.0
0.0988242 -0.000118211 0.0
0.20808 -0.000339426 0.0
0.189757 -0.00029599 0.0
0.168123 -0.000245736 0.0
0.140616 -0.000178106 0.0
0.0954054 -9.43108e-05 0.0
0 0 0.0
0.0332508 -1.40734e-05 0.0
0.0660522 -5.37492e-05 0.0
0.183227 -0.000306717 0.0
0.159267 -0.000263179 0.0
0.244897 -0.000445792 0.0
0.24966 -0.000489275 0.0
0.235963 -0.000448896 0.0
0.244859 -0.000474454 0.0
0.249378 -0.000488106 0.0
0.238619 -0.000451361 0.0
0.218418 -0.000408002 0.0
0.203107 -0.000378629 0.0
0.223373 -0.000443418 0.0
0 0 0.0
0.04781 -3.37626e-05 0.0
0.127926 -0.000198812 0.0
0.0904293 -0.000111024 0.0
0.202605 -0.000364806 0.0
0.177963 -0.000300138 0.0
0.147883 -0.000225375 0.0
0.118716 -0.000147885 0.0
0.0780224 -7.92171e-05 0.0
0 0 0.0
0.0342285 -1.65853e-05 0.0
0.187836 -0.000363052 0.0
0.160406 -0.000292799 0.0
0.246451 -0.000509267 0.0
0.25 -0.000548628 0.0
0.240141 -0.0005181 0.0
0.247578 -0.000571067 0.0
0.239858 -0.000517676 0.0
0.227289 -0.000479355 0.0
0.209726 -0.000426553 0.0
0.227726 -0.000503102 0.0
0.210293 -0.000444419 0.0
0 0 0.0
0.0478742 -3.76693e-05 0.0
0.128022 -0.000221924 0.0
0.0905124 -0.000122077 0.0
0.187166 -0.000361194 0.0
0.159613 -0.000283279 0.0
0.0471939 -3.31251e-05 0.0
0.127078 -0.000196154 0.0
0.0895836 -0.000108757 0.0
0 0 0.0
0.187913 -0.000407897 0.0
0.160497 -0.000327666 0.0
0.247419 -0.000577551 0.0
0.249999 -0.000617952 0.0
0.240174 -0.000583954 0.0
0.247595 -0.000641846 0.0
0.227242 -0.000539548 0.0
0.239825 -0.000582753 0.0
0.187089 -0.000405656 0.0
0.209662 -0.000479783 0.0
0.227767 -0.000552173 0.0
0.210359 -0.000499458 0.0
0 0 0.0
0.047945 -4.12977e-05 0.0
0.128129 -0.000246746 0.0
0.090625 -0.000136912 0.0
0.126982 -0.000219805 0.0
0.159525 -0.000317791 0.0
0.0471338 -3.67382e-05 0.0
0.0894927 -0.000120879 0.0
0 0 0.0
0.188 -0.000455466 0.0
0.160599 -0.00036525 0.0
0.247401 -0.000648051 0.0
0.249999 -0.000692151 0.0
0.227812 -0.000605622 0.0
0.240226 -0.000682774 0.0
0.247614 -0.000718259 0.0
0.227197 -0.000590551 0.0
0.239788 -0.000652638 0.0
0.187025 -0.00043985 0.0
0.209591 -0.000536632 0.0
0.210433 -0.000558277 0.0
0 0 0.0
0.048028 -4.59275e-05 0.0
0.128268 -0.000277564 0.0
0.0907398 -0.000151243 0.0
0.126892 -0.000240077 0.0
0.159426 -0.000353828 0.0
0.0470609 -4.08141e-05 0.0
0.0893922 -0.000133452 0.0
0 0 0.0
0.160714 -0.000405195 0.0
0.188123 -0.000519257 0.0
0.247381 -0.00072366 0.0
0.249998 -0.000771862 0.0
0.24026 -0.000745617 0.0
0.227897 -0.000700446 0.0
0.247635 -0.000799356 0.0
0.239746 -0.00072712 0.0
0.227148 -0.000646271 0.0
0.186931 -0.000489184 0.0
0.20951 -0.000597074 0.0
0.210516 -0.000621998 0.0
0 0 0.0
0.0481116 -5.07025e-05 0.0
0.128383 -0.000302703 0.0
0.0908665 -0.000166892 0.0
0.126776 -0.000265692 0.0
0.159314 -0.000392815 0.0
0 0 0.0
0.0892799 -0.000147634 0.0
0.0469872 -4.48576e-05 0.0
0.188235 -0.000577738 0.0
0.160842 -0.000449199 0.0
0.227955 -0.000763904 0.0
0.247358 -0.00080573 0.0
0.249997 -0.000858341 0.0
0.247654 -0.000867901 0.0
0.240298 -0.000811416 0.0
0.239699 -0.000807918 0.0
0.227081 -0.000718491 0.0
0.186797 -0.000555786 0.0
0.209421 -0.000663267 0.0
0.210609 -0.000690196 0.0
0 0 0.0
0.0482067 -5.5898e-05 0.0
0.0909921 -0.000181868 0.0
0.128531 -0.000333995 0.0
0.126626 -0.000297688 0.0
0.15919 -0.000434796 0.0
0 0 0.0
0.046899 -4.93597e-05 0.0
0.0891698 -0.000160728 0.0
0.188329 -0.000623341 0.0
0.160985 -0.000497162 0.0
0.228018 -0.000832188 0.0
0.24037 -0.000937872 0.0
0.247333 -0.000894842 0.0
0.249997 -0.000951658 0.0
0.247674 -0.000940151 0.0
0.239647 -0.000895441 0.0
0.227007 -0.00079692 0.0
0.186707 -0.000599931 0.0
0.20932 -0.000733841 0.0
0.210713 -0.000765221 0.0
0 0 0.0
0.0483125 -6.13607e-05 0.0
0.128721 -0.000374877 0.0
0.0911618 -0.000203098 0.0
0.126502 -0.000323734 0.0
0.159052 -0.000480339 0.0
0.0468108 -5.36548e-05 0.0
0 0 0.0
0.0890215 -0.000178517 0.0
0.161143 -0.00054954 0.0
0.188499 -0.000706209 0.0
0.228136 -0.00095459 0.0
0.24043 -0.00104038 0.0
0.247701 -0.00104214 0.0
0.24729 -0.00103524 0.0
0.249995 -0.0010552 0.0
0.239588 -0.000992834 0.0
0.226894 -0.000911503 0.0
0.186542 -0.000678606 0.0
0.209209 -0.000812038 0.0
0.210827 -0.000846708 0.0
0 0 0.0
0.0484277 -6.71935e-05 0.0
0.0913321 -0.000222564 0.0
0.161318 -0.000605175 0.0
0.128878 -0.000406523 0.0
0.126343 -0.000356757 0.0
0.158931 -0.000519678 0.0
0.0467081 -5.93727e-05 0.0
0 0 0.0
0.0888857 -0.000194946 0.0
0.210935 -0.000922595 0.0
0.188616 -0.000762876 0.0
0.240482 -0.00112723 0.0
0.228233 -0.00105909 0.0
0.247747 -0.00120401 0.0
0.249994 -0.00116667 0.0
0.247264 -0.00111908 0.0
0.239523 -0.00109684 0.0
0.226816 -0.000989214 0.0
0.186431 -0.000730659 0.0
0.158731 -0.000584785 0.0
0.209086 -0.000895699 0.0
0 0 0.0
0.0915027 -0.000243032 0.0
0.0485632 -7.45304e-05 0.0
0.161472 -0.000656453 0.0
0.12911 -0.000456199 0.0
0.126168 -0.000393543 0.0
0 0 0.0
0.0465952 -6.5442e-05 0.0
0.0887047 -0.000216914 0.0
0.211054 -0.00100357 0.0
0.188826 -0.000866377 0.0
0.240538 -0.00122101 0.0
0.228341 -0.00117268 0.0
0.247773 -0.00130415 0.0
0.24999 -0.00129002 0.0
0.247235 -0.00121136 0.0
0.158583 -0.000629881 0.0
0.20897 -0.00097276 0.0
0.239449 -0.00120941 0.0
0.22673 -0.0010738 0.0
0.186271 -0.000806102 0.0
0 0 0.0
0.0486963 -8.10501e-05 0.0
0.0917068 -0.000266638 0.0
0.161685 -0.000724086 0.0
0.129338 -0.000503217 0.0
0.0885211 -0.000238576 0.0
0.125943 -0.000440163 0.0
0 0 0.0
0.046465 -7.26965e-05 0.0
0.211205 -0.00111003 0.0
0.189019 -0.000959032 0.0
0.240614 -0.00135021 0.0
0.22846 -0.00129854 0.0
0.247802 -0.00141154 0.0
0.249987 -0.00142643 0.0
0.247174 -0.00139505 0.0
0.158383 -0.000693454 0.0
0.239368 -0.0013349 0.0
0.208845 -0.00105344 0.0
0.226576 -0.00122588 0.0
0.186047 -0.000912391 0.0
0 0 0.0
0.0919576 -0.000296107 0.0
0.0488492 -8.87179e-05 0.0
0.161968 -0.000815545 0.0
0.129589 -0.00055521 0.0
0.0883409 -0.000260943 0.0
0.125727 -0.000486534 0.0
0 0 0.0
0.0463261 -8.0585e-05 0.0
0.18923 -0.00106323 0.0
0.211375 -0.00122957 0.0
0.240698 -0.00149568 0.0
0.247841 -0.00155789 0.0
0.228592 -0.00143764 0.0
0.249981 -0.00157283 0.0
0.247126 -0.00154247 0.0
0.239278 -0.00146927 0.0
0.249548 -0.00169013 0.0
0.158162 -0.000763162 0.0
0.226444 -0.00135097 0.0
0.208631 -0.00119306 0.0
0.185898 -0.000980309 0.0
0 0 0.0
0.0921877 -0.000323322 0.0
0.0490288 -9.83098e-05 0.0
0.162182 -0.000885788 0.0
0.129868 -0.000613371 0.0
0.0881216 -0.000288266 0.0
0.125526 -0.000529062 0.0
0 0 0.0
0.0461819 -8.90231e-05 0.0
0.189466 -0.00117889 0.0
0.211562 -0.0013634 0.0
0.240785 -0.00165339 0.0
0.228737 -0.00159545 0.0
0.2479 -0.00180379 0.0
0.249153 -0.00168431 0.0
0.243763 -0.00162986 0.0
0.233386 -0.00152768 0.0
0.249968 -0.00182685 0.0
0.157921 -0.000839135 0.0
0.218026 -0.00138262 0.0
0.203225 -0.00125154 0.0
0.185629 -0.00110155 0.0
0 0 0.0
0.0924646 -0.000356781 0.0
0.0492142 -0.000107347 0.0
0.162473 -0.000983364 0.0
0.130179 -0.000680174 0.0
0.125229 -0.000591703 0.0
0.0878794 -0.000318966 0.0
0 0 0.0
0.0460061 -9.85745e-05 0.0
0.18973 -0.00131057 0.0
0.211769 -0.00151403 0.0
0.24794 -0.00199298 0.0
0.228896 -0.0017705 0.0
0.240888 -0.0018329 0.0
0.247035 -0.00179648 0.0
0.23911 -0.00171345 0.0
0.226197 -0.00158073 0.0
0.24995 -0.0020165 0.0
0.157655 -0.000922696 0.0
0.208308 -0.0014002 0.0
0.185387 -0.0012093 0.0
0 0 0.0
0.0494101 -0.00011759 0.0
0.0927733 -0.00039642 0.0
0.130473 -0.000744217 0.0
0.19002 -0.00145813 0.0
0.1628 -0.00109491 0.0
0.124944 -0.00065103 0.0
0.0876125 -0.00035267 0.0
0.0458178 -0.000109453 0.0
0 0 0.0
0.229038 -0.00193279 0.0
0.211999 -0.00168665 0.0
0.247976 -0.00215795 0.0
0.240991 -0.00203557 0.0
0.226024 -0.00173387 0.0
0.246962 -0.00197839 0.0
0.238983 -0.00188356 0.0
0.249931 -0.00222584 0.0
0.185126 -0.00132224 0.0
0.157307 -0.00102699 0.0
0.20802 -0.00157608 0.0
0 0 0.0
0.049638 -0.000131543 0.0
0.0931565 -0.000447204 0.0
0.130854 -0.000830684 0.0
0.19026 -0.0015884 0.0
0.16324 -0.00125719 0.0
0.124634 -0.000713199 0.0
0.0872918 -0.000391914 0.0
0.0456121 -0.000120661 0.0
0 0 0.0
0.124294 -0.000779841 0.0
0.229189 -0.00210522 0.0
0.212331 -0.00195026 0.0
0.241149 -0.00236121 0.0
0.248009 -0.0023334 0.0
0.22576 -0.00195902 0.0
0.238844 -0.00206651 0.0
0.24688 -0.00217976 0.0
0.249898 -0.00245743 0.0
0.184839 -0.00144199 0.0
0.156986 -0.00112358 0.0
0.207772 -0.00172496 0.0
0 0 0.0
0.0498929 -0.000147078 0.0
0.0935509 -0.000503656 0.0
0.131283 -0.000935263 0.0
0.190613 -0.00177787 0.0
0.16366 -0.0014163 0.0
0.045381 -0.000134347 0.0
0.0869665 -0.000430931 0.0
0 0 0.0
0.123986 -0.000834425 0.0
0.229388 -0.0023524 0.0
0.212619 -0.00218556 0.0
0.241269 -0.00262632 0.0
0.248045 -0.00258898 0.0
0.225572 -0.00211012 0.0
0.238687 -0.0022651 0.0
0.249857 -0.00271455 0.0
0.246733 -0.00250433 0.0
0.184604 -0.00153254 0.0
0.156637 -0.00121978 0.0
0.207498 -0.00187719 0.0
0 0 0.0
0.0501783 -0.000165975 0.0
0.0939953 -0.000570166 0.0
0.131841 -0.00107813 0.0
0.191101 -0.00206062 0.0
0.21293 -0.00245824 0.0
0.164125 -0.00160494 0.0
0.0451457 -0.000146214 0.0
0.0866172 -0.000469166 0.0
0 0 0.0
0.123595 -0.000899624 0.0
0.229676 -0.00272998 0.0
0.241366 -0.00286815 0.0
0.248078 -0.0028732 0.0
0.249811 -0.00292795 0.0
0.225371 -0.00226396 0.0
0.238497 -0.00248471 0.0
0.246604 -0.00275346 0.0
0.156259 -0.00131681 0.0
0.184267 -0.00165936 0.0
0.207192 -0.00203677 0.0
0 0 0.0
0.0505266 -0.00019098 0.0
0.0945067 -0.000655241 0.0
0.1324 -0.00123479 0.0
0.191432 -0.00226463 0.0
0.213267 -0.00276496 0.0
0.164648 -0.00182676 0.0
0.0448754 -0.000158452 0.0
0.0862398 -0.000506434 0.0
0 0 0.0
0.155934 -0.00138556 0.0
0.08584 -0.000538646 0.0
0.123111 -0.000968901 0.0
0.229907 -0.00307662 0.0
0.24146 -0.00312209 0.0
0.248105 -0.00334404 0.0
0.24976 -0.0031518 0.0
0.246489 -0.00296537 0.0
0.225096 -0.00246113 0.0
0.238194 -0.00281646 0.0
0.183797 -0.00181594 0.0
0.206906 -0.00218188 0.0
0.23011 -0.00338028 0.0
0 0 0.0
0.050907 -0.000220537 0.0
0.133035 -0.00142389 0.0
0.0950924 -0.00075971 0.0
0.213637 -0.00313055 0.0
0.19203 -0.00265479 0.0
0.165231 -0.00208946 0.0
0.0445729 -0.000169336 0.0
0 0 0.0
0.183483 -0.00191294 0.0
0.155495 -0.00147405 0.0
0.122656 -0.00102602 0.0
0.0442588 -0.000182785 0.0
0.0854134 -0.000569396 0.0
0.241583 -0.00348962 0.0
0.248104 -0.0036329 0.0
0.24966 -0.00348279 0.0
0.24957 -0.0037588 0.0
0.24635 -0.00318798 0.0
0.224776 -0.00267357 0.0
0.237919 -0.00307637 0.0
0.206586 -0.00231886 0.0
0.230305 -0.00372232 0.0
0.0513293 -0.000256049 0.0
0 0 0.0
0.133642 -0.00161027 0.0
0.0957657 -0.000882669 0.0
0.21403 -0.00354696 0.0
0.192428 -0.00293321 0.0
0.165887 -0.00240214 0.0
0 0 0.0
0.183033 -0.00202973 0.0
0.154922 -0.00156545 0.0
0.122254 -0.00105907 0.0
0.0439516 -0.000191163 0.0
0.0849696 -0.000594188 0.0
0.241733 -0.00408818 0.0
0.248095 -0.00393836 0.0
0.249453 -0.00404819 0.0
0.246039 -0.00364084 0.0
0.224417 -0.00289056 0.0
0.237613 -0.00335173 0.0
0.206038 -0.00254198 0.0
0.230567 -0.00419934 0.0
0 0 0.0
0.0518428 -0.000302242 0.0
0.134447 -0.00187144 0.0
0.0964719 -0.00101852 0.0
0.166618 -0.00276474 0.0
0.214451 -0.00403187 0.0
0.193153 -0.00346262 0.0
0 0 0.0
0 0 0.0
0.182526 -0.00214587 0.0
0.1544 -0.00163478 0.0
0.121754 -0.00109592 0.0
0.0845133 -0.000612922 0.0
0.0436161 -0.000197535 0.0
0.241826 -0.00458044 0.0
0.248047 -0.00438562 0.0
0.23732 -0.00358744 0.0
0.249265 -0.00447198 0.0
0.245753 -0.00399957 0.0
0.223996 -0.00312268 0.0
0.205544 -0.00271214 0.0
0.241882 -0.00502613 0.0
0.23081 -0.00474189 0.0
0.0524435 -0.000354664 0.0
0.0973684 -0.00118981 0.0
0.13537 -0.0021842 0.0
0.16727 -0.00311004 0.0
0.214902 -0.0045822 0.0
0.193627 -0.00384866 0.0
0 0 0.0
0 0 0.0
0.153954 -0.00167312 0.0
0.181824 -0.00227288 0.0
0.0840947 -0.000620142 0.0
0.121152 -0.00112321 0.0
0.0432662 -0.000204127 0.0
0.247927 -0.0051054 0.0
0.249011 -0.00494624 0.0
0.204993 -0.00288161 0.0
0.236988 -0.00382905 0.0
0.2455 -0.00429989 0.0
0.223331 -0.00344516 0.0
0.241925 -0.00549326 0.0
0.23116 -0.0055904 0.0
0.21537 -0.00521776 0.0
0.053197 -0.000421974 0.0
0.0984138 -0.00140375 0.0
0.136597 -0.00260898 0.0
0.168172 -0.00358997 0.0
0.194492 -0.00457312 0.0
0 0 0.0
0 0 0.0
0.153238 -0.0017237 0.0
0.181184 -0.00237461 0.0
0.0835848 -0.000623234 0.0
0.12061 -0.00113586 0.0
0.0429042 -0.000206798 0.0
0.245201 -0.00462021 0.0
0.248699 -0.0054565 0.0
0.247765 -0.00569526 0.0
0.204365 -0.00305191 0.0
0.236511 -0.00415873 0.0
0.22274 -0.00371002 0.0
0.180483 -0.00246736 0.0
0.241932 -0.00644237 0.0
0 0 0.0
0.231376 -0.00633437 0.0
0.195254 -0.00526205 0.0
0.215853 -0.00593305 0.0
0.05401 -0.000499064 0.0
0.137649 -0.00298907 0.0
0.0997724 -0.00169102 0.0
0.169387 -0.00429639 0.0
0 0 0.0
0 0 0.0
0 0 0.0
0 0 0.0
0 0 0.0
0.0425761 -0.000206097 0.0
0.120053 -0.00114124 0.0
0.152587 -0.00175992 0.0
0.0831552 -0.000624635 0.0
0.244744 -0.00505176 0.0
0.248301 -0.00602543 0.0
0.247558 -0.00634372 0.0
0.222188 -0.0039177 0.0
0.203649 -0.00322401 0.0
0.235692 -0.00465388 0.0
0.202973 -0.00337001 0.0
0.179901 -0.00253048 0.0
0.241864 -0.00723222 0.0
0.231586 -0.00714832 0.0
0 0 0.0
9.47982e-05 -3.96606e-05 0.0
0 0 0.0
-0.000326123 0.00179546 0.0
0.216361 -0.00675926 0.0
0.195875 -0.00583582 0.0
0.0550662 -0.00060336 0.0
0.139036 -0.00349467 0.0
0.101224 -0.00200405 0.0
0.17055 -0.00499101 0.0
0 0 0.0
0 0 0.0
0 0 0.0
-0.000238716 0.000937767 0.0
-1.34334e-05 -0.000126666 0.0
5.27439e-05 -7.14027e-05 0.0
0 0 0.0
0.0422237 -0.000207027 0.0
0.119568 -0.00113841 0.0
0.151894 -0.00178871 0.0
0.0826437 -0.000622392 0.0
0.244201 -0.00553269 0.0
0.247811 -0.00664749 0.0
0.247267 -0.00705579 0.0
0.221566 -0.00414598 0.0
0.235133 -0.00497309 0.0
0.202221 -0.00351452 0.0
0.178851 -0.00263787 0.0
0.241749 -0.00809729 0.0
0.23471 -0.00803825 0.0
0.224886 -0.00778393 0.0
0 0 0.0
0.000144868 -4.9529e-06 0.0
0 0 0.0
0 0 0.0
-0.0011659 0.00413829 0.0
-0.00110283 0.00266076 0.0
0.212242 -0.00736873 0.0
0.196743 -0.00670436 0.0
0.102747 -0.00234124 0.0
0.0562113 -0.000728656 0.0
0.140617 -0.00409975 0.0
0.171826 -0.00579404 0.0
0 0 0.0
-0.000369981 0.000414341 0.0
-0.000732524 0.00132081 0.0
-0.000208117 0.000126424 0.0
-0.00014817 0.000161245 0.0
0 0 0.0
0.0418751 -0.000207397 0.0
0.118989 -0.00113506 0.0
0.151162 -0.00180767 0.0
0.0821762 -0.000619214 0.0
0.243548 -0.00605009 0.0
0.247217 -0.00732293 0.0
0.246884 -0.00783901 0.0
0.220392 -0.00454196 0.0
0.234502 -0.00529473 0.0
0.201233 -0.0037033 0.0
0.150389 -0.00184298 0.0
0.177911 -0.00273573 0.0
0.241594 -0.00884778 0.0
0.231842 -0.00873685 0.0
0.217222 -0.00843746 0.0
0 0 0.0
-5.59628e-05 0.000106925 0.0
0 0 0.0
0 0 0.0
0 0 0.0
0 0 0.0
-0.0019722 0.00284338 0.0
-0.000333392 0.00361584 0.0
-0.00120457 0.00542803 0.0
-0.00278624 0.0071494 0.0
-0.0023208 0.00482078 0.0
0 0 0.0
-7.39019e-05 0.00557967 0.0
0.197896 -0.00799408 0.0
0.172946 -0.00655516 0.0
0 0 0.0
0.0577302 -0.0009051 0.0
0.104703 -0.00280631 0.0
0.142714 -0.00498693 0.0
0 0 0.0
0 0 0.0
-0.00115423 0.00132195 0.0
-0.000844936 0.000737248 0.0