# vtk DataFile Version 3.0
Mesh NS-CD Problem
ASCII
DATASET UNSTRUCTURED_GRID
POINTS 10839 float
-2 0.3 0.0
-2 0.4 0.0
-2 0.35 0.0
-2 0.45 0.0
-2 0.5 0.0
-2 0.55 0.0
-2 0 0.0
-2 0.05 0.0
-2 0.85 0.0
-2 0.9 0.0
-2 0.1 0.0
-2 0.15 0.0
-2 0.25 0.0
-2 0.2 0.0
-1.96653 0.266667 0.0
-1.96524 0.415385 0.0
-1.96485 0.315 0.0
-1.96348 0.363636 0.0
-1.96414 0.464286 0.0
-2 0.6 0.0
-1.96538 0.584615 0.0
-1.96538 0.538462 0.0
-1.94979 0 0.0
-1.96653 0.0666666 0.0
-1.93306 0.0333333 0.0
-2 0.8 0.0
-2 0.75 0.0
-2 0.7 0.0
-2 0.65 0.0
-1.96249 0.7375 0.0
-1.96666 0.833333 0.0
-2 1 0.0
-2 0.95 0.0
-1.96249 0.8875 0.0
-1.96666 0.933333 0.0
-1.96234 0.1125 0.0
-1.96653 0.166667 0.0
-1.93724 0.225 0.0
-1.92971 0.28 0.0
-1.93048 0.380769 0.0
-1.93048 0.423077 0.0
-1.89958 0.3375 0.0
-1.9292 0.484203 0.0
-1.92117 0.530907 0.0
-1.96363 0.636364 0.0
-1.93076 0.576923 0.0
-1.89958 0 0.0
-1.88703 0.0375 0.0
-1.90963 0.08 0.0
-1.86611 0.0666666 0.0
-1.93749 0.775 0.0
-1.93635 0.672727 0.0
-1.92999 0.72 0.0
-1.93332 0.866667 0.0
-1.92856 0.821429 0.0
-1.94999 1 0.0
-1.92499 0.9625 0.0
-1.92499 0.925 0.0
-1.89998 0.9 0.0
-1.89958 0.125 0.0
-1.92827 0.178571 0.0
-1.89958 0.233333 0.0
-1.89045 0.290909 0.0
-1.86096 0.311538 0.0
-1.89241 0.392857 0.0
-1.89334 0.448489 0.0
-1.85655 0.357143 0.0
-1.89614 0.653846 0.0
-1.89427 0.504121 0.0
-1.8952 0.559753 0.0
-1.89614 0.615385 0.0
-1.84937 0 0.0
-1.83264 0.0333333 0.0
-1.85655 0.107143 0.0
-1.81172 0.075 0.0
-1.89998 0.766667 0.0
-1.89089 0.709091 0.0
-1.87498 0.85 0.0
-1.85998 0.79 0.0
-1.88748 0.8125 0.0
-1.89998 1 0.0
-1.88748 0.9625 0.0
-1.86664 0.933333 0.0
-1.85712 0.892857 0.0
-1.87448 0.15 0.0
-1.86611 0.194444 0.0
-1.83264 0.133333 0.0
-1.83264 0.2625 0.0
-1.82068 0.321429 0.0
-1.85664 0.404762 0.0
-1.85674 0.452381 0.0
-1.85683 0.5 0.0
-1.81184 0.375 0.0
-1.85712 0.642857 0.0
-1.85693 0.547619 0.0
-1.85702 0.595238 0.0
-1.79917 0 0.0
-1.78482 0.0357143 0.0
-1.79917 0.116667 0.0
-1.76569 0.0666666 0.0
-1.85452 0.745455 0.0
-1.82689 0.692308 0.0
-1.81815 0.781818 0.0
-1.82497 0.825 0.0
-1.84997 1 0.0
-1.8333 0.958333 0.0
-1.81247 0.8875 0.0
-1.81247 0.925 0.0
-1.81742 0.218182 0.0
-1.82427 0.175 0.0
-1.77634 0.145455 0.0
-1.79144 0.242308 0.0
-1.78482 0.285714 0.0
-1.77469 0.332653 0.0
-1.81215 0.529762 0.0
-1.81194 0.422619 0.0
-1.81203 0.470238 0.0
-1.76714 0.392857 0.0
-1.81234 0.625 0.0
-1.79732 0.571429 0.0
-1.74896 0 0.0
-1.73222 0.0333333 0.0
-1.75398 0.105 0.0
-1.71883 0.07 0.0
-1.79227 0.730769 0.0
-1.78007 0.679121 0.0
-1.75765 0.769231 0.0
-1.78178 0.818182 0.0
-1.78996 0.86 0.0
-1.79996 1 0.0
-1.78568 0.964286 0.0
-1.76663 0.922222 0.0
-1.76569 0.1875 0.0
-1.73222 0.15 0.0
-1.74896 0.25 0.0
-1.73714 0.304762 0.0
-1.76743 0.537202 0.0
-1.72869 0.343878 0.0
-1.76732 0.485119 0.0
-1.76723 0.440476 0.0
-1.72243 0.410714 0.0
-1.76757 0.607143 0.0
-1.69875 0 0.0
-1.68369 0.035 0.0
-1.69875 0.1125 0.0
-1.66528 0.075 0.0
-1.74341 0.708974 0.0
-1.73324 0.665934 0.0
-1.70441 0.74478 0.0
-1.71423 0.785714 0.0
-1.72303 0.826923 0.0
-1.74541 0.854545 0.0
-1.74541 0.890909 0.0
-1.74996 1 0.0
-1.73745 0.9625 0.0
-1.71359 0.927273 0.0
-1.68716 0.153846 0.0
-1.7131 0.214286 0.0
-1.70725 0.275 0.0
-1.69712 0.321939 0.0
-1.72279 0.589286 0.0
-1.72261 0.5 0.0
-1.7227 0.544643 0.0
-1.6827 0.355102 0.0
-1.67773 0.428571 0.0
-1.70763 0.464286 0.0
-1.70369 0.62449 0.0
-1.64854 0 0.0
-1.63181 0.0375 0.0
-1.64137 0.142857 0.0
-1.61764 0.0769231 0.0
-1.69458 0.703846 0.0
-1.67471 0.657437 0.0
-1.66143 0.727637 0.0
-1.67125 0.768571 0.0
-1.67851 0.821429 0.0
-1.68841 0.861538 0.0
-1.70904 0.890909 0.0
-1.69995 1 0.0
-1.68176 0.963636 0.0
-1.67267 0.927273 0.0
-1.65427 0.187143 0.0
-1.66718 0.231429 0.0
-1.66554 0.3 0.0
-1.67802 0.571429 0.0
-1.67792 0.523809 0.0
-1.6367 0.366327 0.0
-1.63682 0.423469 0.0
-1.62568 0.502976 0.0
-1.6629 0.470238 0.0
-1.65254 0.618367 0.0
-1.6059 0.307143 0.0
-1.59833 0 0.0
-1.58288 0.0384615 0.0
-1.60563 0.169643 0.0
-1.58179 0.112271 0.0
-1.56964 0.0714286 0.0
-1.64574 0.690385 0.0
-1.62827 0.751429 0.0
-1.63371 0.791071 0.0
-1.64279 0.857143 0.0
-1.65378 0.896154 0.0
-1.64994 1 0.0
-1.6363 0.963636 0.0
-1.61916 0.930769 0.0
-1.61345 0.209107 0.0
-1.62126 0.248571 0.0
-1.56989 0.196429 0.0
-1.63324 0.553571 0.0
-1.58846 0.535714 0.0
-1.59408 0.361905 0.0
-1.59161 0.402211 0.0
-1.58832 0.464286 0.0
-1.61504 0.598581 0.0
-1.59683 0.64359 0.0
-1.57899 0.274107 0.0
-1.56176 0.322381 0.0
-1.54812 0 0.0
-1.53378 0.0357143 0.0
-1.54593 0.147619 0.0
-1.53385 0.0732143 0.0
-1.53393 0.110714 0.0
-1.58522 0.704286 0.0
-1.58709 0.745 0.0
-1.58896 0.785714 0.0
-1.60695 0.830357 0.0
-1.60707 0.892857 0.0
-1.59993 1 0.0
-1.58454 0.965385 0.0
-1.57135 0.928571 0.0
-1.55209 0.241071 0.0
-1.5291 0.198214 0.0
-1.56936 0.570918 0.0
-1.54369 0.517857 0.0
-1.5464 0.380952 0.0
-1.54564 0.427721 0.0
-1.54488 0.47449 0.0
-1.55026 0.606122 0.0
-1.54222 0.677143 0.0
-1.52943 0.282857 0.0
-1.52143 0.33619 0.0
-1.49792 0 0.0
-1.49802 0.05 0.0
-1.49822 0.15 0.0
-1.49312 0.1 0.0
-1.5423 0.717143 0.0
-1.54419 0.767857 0.0
-1.54727 0.819048 0.0
-1.57122 0.861905 0.0
-1.53553 0.914286 0.0
-1.54992 1 0.0
-1.53563 0.964286 0.0
-1.49842 0.25 0.0
-1.48831 0.2 0.0
-1.5214 0.558929 0.0
-1.49891 0.5 0.0
-1.49871 0.4 0.0
-1.47631 0.45 0.0
-1.49911 0.6 0.0
-1.49921 0.65 0.0
-1.49931 0.7 0.0
-1.48111 0.35 0.0
-1.48351 0.3 0.0
-1.44771 0 0.0
-1.44782 0.05 0.0
-1.44804 0.15 0.0
-1.44793 0.1 0.0
-1.49941 0.75 0.0
-1.49951 0.8 0.0
-1.49981 0.95 0.0
-1.49961 0.85 0.0
-1.49971 0.9 0.0
-1.49991 1 0.0
-1.44826 0.25 0.0
-1.43815 0.2 0.0
-1.47151 0.55 0.0
-1.44881 0.5 0.0
-1.44859 0.4 0.0
-1.42619 0.45 0.0
-1.44913 0.65 0.0
-1.44902 0.6 0.0
-1.44935 0.75 0.0
-1.44924 0.7 0.0
-1.43972 0.35 0.0
-1.43336 0.3 0.0
-1.3975 0 0.0
-1.39762 0.05 0.0
-1.39786 0.15 0.0
-1.39274 0.1 0.0
-1.44957 0.85 0.0
-1.44946 0.8 0.0
-1.4523 0.95 0.0
-1.44968 0.9 0.0
-1.4499 1 0.0
-1.3981 0.25 0.0
-1.38798 0.2 0.0
-1.42141 0.55 0.0
-1.3987 0.5 0.0
-1.39834 0.35 0.0
-1.37845 0.4 0.0
-1.37607 0.45 0.0
-1.40784 0.65 0.0
-1.39894 0.6 0.0
-1.41185 0.75 0.0
-1.39918 0.7 0.0
-1.38322 0.3 0.0
-1.34729 0 0.0
-1.34492 0.05 0.0
-1.34018 0.15 0.0
-1.34255 0.1 0.0
-1.40707 0.85 0.0
-1.39941 0.8 0.0
-1.39977 0.95 0.0
-1.39965 0.9 0.0
-1.39989 1 0.0
-1.33781 0.2 0.0
-1.33544 0.25 0.0
-1.37131 0.55 0.0
-1.34859 0.5 0.0
-1.33833 0.4 0.0
-1.3307 0.35 0.0
-1.32595 0.45 0.0
-1.34885 0.6 0.0
-1.36655 0.65 0.0
-1.36179 0.75 0.0
-1.34911 0.7 0.0
-1.33307 0.3 0.0
-1.29708 0 0.0
-1.29722 0.05 0.0
-1.2975 0.15 0.0
-1.29236 0.1 0.0
-1.35703 0.85 0.0
-1.34937 0.8 0.0
-1.34988 1 0.0
-1.34962 0.9 0.0
-1.35226 0.95 0.0
-1.28528 0.25 0.0
-1.28764 0.2 0.0
-1.28931 0.35 0.0
-1.32121 0.55 0.0
-1.29848 0.5 0.0
-1.28709 0.45 0.0
-1.2982 0.4 0.0
-1.29876 0.6 0.0
-1.31647 0.65 0.0
-1.29918 0.75 0.0
-1.29904 0.7 0.0
-1.28292 0.3 0.0
-1.24687 0 0.0
-1.24702 0.05 0.0
-1.24717 0.1 0.0
-1.24732 0.15 0.0
-1.29946 0.85 0.0
-1.29932 0.8 0.0
-1.29987 1 0.0
-1.29974 0.95 0.0
-1.30462 0.9 0.0
-1.24762 0.25 0.0
-1.23747 0.2 0.0
-1.24792 0.35 0.0
-1.22807 0.4 0.0
-1.27111 0.55 0.0
-1.24837 0.5 0.0
-1.24822 0.45 0.0
-1.24867 0.6 0.0
-1.26639 0.65 0.0
-1.26167 0.75 0.0
-1.24897 0.7 0.0
-1.23277 0.3 0.0
-1.19667 0 0.0
-1.19683 0.05 0.0
-1.18964 0.15 0.0
-1.19198 0.1 0.0
-1.25695 0.85 0.0
-1.24927 0.8 0.0
-1.25223 0.95 0.0
-1.24987 1 0.0
-1.24957 0.9 0.0
-1.1873 0.2 0.0
-1.18496 0.25 0.0
-1.18028 0.35 0.0
-1.17794 0.4 0.0
-1.1981 0.45 0.0
-1.19842 0.55 0.0
-1.19826 0.5 0.0
-1.19858 0.6 0.0
-1.19874 0.65 0.0
-1.19906 0.75 0.0
-1.1989 0.7 0.0
-1.18262 0.3 0.0
-1.14646 0 0.0
-1.14663 0.05 0.0
-1.1418 0.1 0.0
-1.13713 0.2 0.0
-1.14697 0.15 0.0
-1.20691 0.85 0.0
-1.20926 0.8 0.0
-1.20221 0.95 0.0
-1.19986 1 0.0
-1.20456 0.9 0.0
-1.13997 0.3 0.0
-1.14731 0.25 0.0
-1.13781 0.4 0.0
-1.13014 0.35 0.0
-1.12548 0.45 0.0
-1.14815 0.5 0.0
-1.15962 0.55 0.0
-1.14849 0.6 0.0
-1.15745 0.65 0.0
-1.16155 0.75 0.0
-1.14917 0.8 0.0
-1.14883 0.7 0.0
-1.09625 0 0.0
-1.09661 0.1 0.0
-1.09393 0.05 0.0
-1.09697 0.2 0.0
-1.08929 0.15 0.0
-1.15687 0.85 0.0
-1.14985 1 0.0
-1.15219 0.95 0.0
-1.14951 0.9 0.0
-1.09733 0.3 0.0
-1.08465 0.25 0.0
-1.09769 0.4 0.0
-1.08 0.35 0.0
-1.08661 0.45 0.0
-1.09804 0.5 0.0
-1.12082 0.55 0.0
-1.10916 0.8 0.0
-1.10629 0.7 0.0
-1.0984 0.6 0.0
-1.11616 0.65 0.0
-1.11149 0.75 0.0
-1.04604 0 0.0
-1.04623 0.05 0.0
-1.04642 0.1 0.0
-1.0468 0.2 0.0
-1.03911 0.15 0.0
-1.09948 0.9 0.0
-1.0993 0.85 0.0
-1.09984 1 0.0
-1.09966 0.95 0.0
-1.04718 0.3 0.0
-1.03449 0.25 0.0
-1.04756 0.4 0.0
-1.02986 0.35 0.0
-1.04775 0.45 0.0
-1.04794 0.5 0.0
-1.04813 0.55 0.0
-1.05911 0.8 0.0
-1.04831 0.6 0.0
-1.06376 0.7 0.0
-1.0485 0.65 0.0
-1.04888 0.75 0.0
-0.995833 0 0.0
-0.991231 0.1 0.0
-0.996033 0.05 0.0
-0.986629 0.2 0.0
-0.98893 0.15 0.0
-1.05447 0.9 0.0
-1.04926 0.85 0.0
-1.04983 1 0.0
-1.04964 0.95 0.0
-0.984328 0.25 0.0
-0.99703 0.3 0.0
-0.997429 0.4 0.0
-0.997628 0.45 0.0
-0.979726 0.35 0.0
-0.997827 0.5 0.0
-0.998027 0.55 0.0
-0.998226 0.6 0.0
-0.961416 0.475 0.0
-1.00907 0.8 0.0
-0.998426 0.65 0.0
-0.998625 0.7 0.0
-1.01138 0.75 0.0
-0.945625 0 0.0
-0.946044 0.1 0.0
-0.943334 0.05 0.0
-0.946463 0.2 0.0
-0.938752 0.15 0.0
-1.00444 0.9 0.0
-1.00675 0.85 0.0
-0.999821 1 0.0
-1.00213 0.95 0.0
-0.93417 0.25 0.0
-0.946881 0.3 0.0
-0.9473 0.4 0.0
-0.929588 0.35 0.0
-0.925005 0.45 0.0
-0.960371 0.525 0.0
-0.959325 0.575 0.0
-0.958279 0.625 0.0
-0.922714 0.5 0.0
-0.959017 0.8 0.0
-0.957233 0.675 0.0
-0.952999 0.7125 0.0
-0.948766 0.75 0.0
-0.895417 0 0.0
-0.895855 0.1 0.0
-0.893136 0.05 0.0
-0.896294 0.2 0.0
-0.888573 0.15 0.0
-0.949184 0.85 0.0
-0.954415 0.9 0.0
-0.949812 1 0.0
-0.949603 0.95 0.0
-0.884011 0.25 0.0
-0.896733 0.3 0.0
-0.874887 0.45 0.0
-0.879449 0.35 0.0
-0.897171 0.4 0.0
-0.920423 0.55 0.0
-0.918132 0.6 0.0
-0.915841 0.65 0.0
-0.872606 0.5 0.0
-0.908968 0.8 0.0
-0.91355 0.7 0.0
-0.898707 0.75 0.0
-0.845208 0 0.0
-0.845438 0.05 0.0
-0.845667 0.1 0.0
-0.845896 0.15 0.0
-0.833853 0.25 0.0
-0.846126 0.2 0.0
-0.899146 0.85 0.0
-0.904386 0.9 0.0
-0.899584 0.95 0.0
-0.899804 1 0.0
-0.838062 0.35 0.0
[...]
POINT_DATA 10839
VECTORS Velocity float
0.21 0 0.0
0.24 0 0.0
0.2275 0 0.0
0.2475 0 0.0
0.25 0 0.0
0.2475 0 0.0
0 0 0.0
0.0475 0 0.0
0.1275 0 0.0
0.09 0 0.0
0.09 0 0.0
0.1275 0 0.0
0.1875 0 0.0
0.16 0 0.0
0.195558 -3.36093e-05 0.0
0.242838 -3.52581e-05 0.0
0.215776 -4.00691e-05 0.0
0.231404 -4.17489e-05 0.0
0.248721 -2.74461e-05 0.0
0.24 0 0.0
0.242838 -5.13057e-06 0.0
0.248517 -1.50415e-05 0.0
0 0 0.0
0.0622237 -6.30427e-06 0.0
0.0322302 -4.96793e-06 0.0
0.16 0 0.0
0.1875 0 0.0
0.21 0 0.0
0.2275 0 0.0
0.193595 3.99714e-06 0.0
0.138889 -2.04235e-06 0.0
0 0 0.0
0.0475 0 0.0
0.0998429 -2.22042e-06 0.0
0.0622215 6.42733e-07 0.0
0.0998465 -1.18203e-05 0.0
0.138891 -1.74279e-05 0.0
0.174385 -5.21461e-05 0.0
0.201609 -7.81072e-05 0.0
0.235779 -8.17609e-05 0.0
0.244073 -7.16164e-05 0.0
0.223596 -0.000130341 0.0
0.249735 -4.8265e-05 0.0
0.249027 -3.16206e-05 0.0
0.231403 1.2672e-06 0.0
0.244071 -8.07288e-06 0.0
0 0 0.0
0.0361083 -1.18854e-06 0.0
0.0736097 -1.06328e-05 0.0
0.0622342 1.28197e-05 0.0
0.174378 4.53198e-06 0.0
0.220163 1.12922e-05 0.0
0.201603 1.43725e-05 0.0
0.115555 -6.29631e-06 0.0
0.146688 -2.2601e-06 0.0
0 0 0.0
0.0360945 4.24801e-07 0.0
0.0693708 -2.81067e-06 0.0
0.0899936 -1.64491e-05 0.0
0.109394 -2.32232e-05 0.0
0.146698 -4.13863e-05 0.0
0.178918 -9.69582e-05 0.0
0.206299 -0.000138831 0.0
0.214501 -0.000201623 0.0
0.238503 -0.000132931 0.0
0.247315 -0.000101538 0.0
0.229578 -0.000210756 0.0
0.226321 3.0021e-05 0.0
0.249946 -5.76346e-05 0.0
0.246397 -1.7025e-05 0.0
0.236666 1.33178e-05 0.0
0 0 0.0
0.0322121 2.01829e-05 0.0
0.0957011 1.02299e-05 0.0
0.0693757 8.86768e-05 0.0
0.178902 1.75085e-05 0.0
0.206283 3.74801e-05 0.0
0.127515 -2.11576e-05 0.0
0.165938 2.19339e-05 0.0
0.152363 7.53478e-07 0.0
0 0 0.0
0.036089 -5.71401e-06 0.0
0.0621999 -3.36736e-05 0.0
0.0956599 -5.48829e-05 0.0
0.127546 -3.81182e-05 0.0
0.156698 -9.55532e-05 0.0
0.115649 3.28282e-06 0.0
0.19367 -0.000227211 0.0
0.21813 -0.000302102 0.0
0.240886 -0.000185251 0.0
0.247668 -0.000141277 0.0
0.249926 -8.44669e-05 0.0
0.234322 -0.000308541 0.0
0.229562 5.73271e-05 0.0
0.247662 -2.63107e-05 0.0
0.240874 2.50641e-05 0.0
0 0 0.0
0.0343416 5.70517e-05 0.0
0.103183 7.78281e-05 0.0
0.0621405 0.000153681 0.0
0.18978 6.03525e-05 0.0
0.213018 0.000115199 0.0
0.170661 6.2787e-05 0.0
0.144452 -1.4104e-05 0.0
0 0 0.0
0.0398766 -4.00518e-05 0.0
0.099869 -0.00012541 0.0
0.0693086 -0.000121351 0.0
0.17072 -0.000191688 0.0
0.144509 -8.52577e-05 0.0
0.124563 1.08265e-05 0.0
0.183765 -0.000303101 0.0
0.20418 -0.000397961 0.0
0.221991 -0.00045663 0.0
0.248971 -5.27195e-05 0.0
0.243907 -0.000251266 0.0
0.248977 -0.000167464 0.0
0.238379 -0.000420977 0.0
0.234295 0.000106298 0.0
0.244749 4.12337e-05 0.0
0 0 0.0
0.0319609 7.82652e-05 0.0
0.0941468 0.000160397 0.0
0.0649642 0.000181283 0.0
0.19681 0.000173025 0.0
0.217886 0.000223159 0.0
0.17771 0.000204893 0.0
0.148943 1.03403e-05 0.0
0.120524 -0.000110889 0.0
0 0 0.0
0.0342824 -6.72092e-05 0.0
0.071605 -0.000209995 0.0
0.15267 -0.000187138 0.0
0.127993 -4.61104e-05 0.0
0.18776 -0.000474657 0.0
0.211969 -0.000630839 0.0
0.248363 -1.50497e-05 0.0
0.225558 -0.00066333 0.0
0.249525 -0.000180314 0.0
0.246239 -0.000310198 0.0
0.24173 -0.000538832 0.0
0.238345 0.000162614 0.0
0 0 0.0
0.0333462 7.41995e-05 0.0
0.100257 6.52287e-05 0.0
0.0693335 2.28754e-05 0.0
0.206381 0.000357126 0.0
0.222368 0.000385938 0.0
0.190336 0.000514773 0.0
0.168768 0.00031825 0.0
0.14356 6.77291e-05 0.0
0.124583 -0.000112951 0.0
0.0972858 -0.000230899 0.0
0 0 0.0
0.0357484 -0.000106059 0.0
0.0671804 -0.000222724 0.0
0.130989 -0.00026097 0.0
0.168903 -0.000511193 0.0
0.199632 -0.000782923 0.0
0.218298 -0.000887726 0.0
0.241687 0.000220444 0.0
0.249575 -0.000157095 0.0
0.247595 4.66371e-05 0.0
0.228797 -0.000926669 0.0
0.244342 -0.000642812 0.0
0.248258 -0.000351826 0.0
0.234196 0.000427993 0.0
0 0 0.0
0.0356457 -6.6934e-06 0.0
0.123548 -0.000597268 0.0
0.0713068 -0.000364463 0.0
0.208485 0.000632791 0.0
0.224961 0.000695825 0.0
0.198399 0.000890985 0.0
0.178373 0.000687857 0.0
0.147391 0.000337166 0.0
0.119828 1.42885e-05 0.0
0.0973629 -0.000199082 0.0
0 0 0.0
0.0344821 -8.92019e-05 0.0
0.0671489 -0.000122781 0.0
0.15317 -0.00080896 0.0
0.178549 -0.000971679 0.0
0.210133 -0.00115601 0.0
0.244302 0.000275491 0.0
0.248754 -3.4044e-05 0.0
0.23167 -0.00124161 0.0
0.24333 -0.000877815 0.0
0.248878 -0.000188717 0.0
0.248357 -0.000411695 0.0
0.235418 0.000678003 0.0
0.212809 -0.00184511 0.0
0 0 0.0
0.0368412 -0.000177417 0.0
0.142319 -0.00140735 0.0
0.101093 -0.001383 0.0
0.0672164 -0.000808004 0.0
0.21365 0.00102185 0.0
0.187277 0.00122458 0.0
0.166127 0.000986692 0.0
0.123303 0.000465346 0.0
0.0933626 9.9593e-05 0.0
0 0 0.0
0.0344055 -2.11991e-05 0.0
0.0643064 0.000204565 0.0
0.16657 -0.0015494 0.0
0.187503 -0.00160931 0.0
0.159369 -0.002394 0.0
0.246157 0.000289245 0.0
0.247222 0.000199979 0.0
0.230237 -0.0017238 0.0
0.239353 -0.00138165 0.0
0.247277 -0.000685615 0.0
0.239327 0.000771945 0.0
0.228622 0.00130871 0.0
0.199387 -0.0023369 0.0
0.21803 -0.00245305 0.0
0 0 0.0
0.0349642 -0.000351529 0.0
0.12786 -0.00276614 0.0
0.0697223 -0.00136153 0.0
0.100756 -0.00244498 0.0
0.208164 0.00181407 0.0
0.19044 0.00187364 0.0
0.169346 0.00177085 0.0
0.142038 0.00119996 0.0
0.0963654 0.000728267 0.0
0 0 0.0
0.0329915 0.00011369 0.0
0.0668808 0.000748239 0.0
0.183931 -0.0029241 0.0
0.160555 -0.00355006 0.0
0.243356 0.00075937 0.0
0.247473 2.39661e-05 0.0
0.234449 -0.00211195 0.0
0.242906 -0.00144764 0.0
0.247201 -0.000707633 0.0
0.237124 0.00140666 0.0
0.217807 0.00235174 0.0
0.202945 -0.00335682 0.0
0.222142 -0.00304509 0.0
0 0 0.0
0.0497042 -0.00098294 0.0
0.13008 -0.00436551 0.0
0.0936247 -0.00315341 0.0
0.202727 0.00265919 0.0
0.179031 0.0028069 0.0
0.149621 0.00272621 0.0
0.120381 0.0017675 0.0
0.0800786 0.00166826 0.0
0 0 0.0
0.0346723 0.000314473 0.0
0.188097 -0.00440112 0.0
0.161592 -0.00498017 0.0
0.24406 0.000867392 0.0
0.246915 -0.000292806 0.0
0.237616 -0.00244379 0.0
0.244112 -0.00157336 0.0
0.23745 0.00186629 0.0
0.225678 0.00276274 0.0
0.209155 0.00349104 0.0
0.225626 -0.00364517 0.0
0.209284 -0.00435728 0.0
0 0 0.0
0.0519814 -0.00136934 0.0
0.131019 -0.00626642 0.0
0.095746 -0.00423229 0.0
0.187732 0.00398427 0.0
0.161187 0.00427654 0.0
0.0492883 0.000933899 0.0
0.129607 0.00409571 0.0
0.0928819 0.00288272 0.0
0 0 0.0
0.187612 -0.00617579 0.0
0.161465 -0.00704174 0.0
0.243874 0.000969372 0.0
0.245603 -0.000345777 0.0
0.236485 -0.00315888 0.0
0.242654 -0.00200083 0.0
0.224705 0.00377211 0.0
0.236295 0.00252097 0.0
0.187153 0.00572358 0.0
0.208372 0.00483724 0.0
0.22479 -0.00458441 0.0
0.208458 -0.00585445 0.0
0 0 0.0
0.0549591 -0.00172039 0.0
0.132436 -0.00816503 0.0
0.0993394 -0.00548566 0.0
0.130442 0.00598765 0.0
0.160984 0.00625697 0.0
0.0513475 0.00131573 0.0
0.095162 0.00409528 0.0
0 0 0.0
0.186779 -0.00827061 0.0
0.161345 -0.00930019 0.0
0.242406 0.00132565 0.0
0.243934 -0.000380285 0.0
0.223664 -0.0056687 0.0
0.234288 -0.00442998 0.0
0.240859 -0.00248199 0.0
0.223587 0.00476496 0.0
0.234749 0.00330652 0.0
0.186465 0.00722836 0.0
0.207183 0.0064716 0.0
0.207235 -0.00763243 0.0
0 0 0.0
0.0585022 -0.00202687 0.0
0.134938 -0.0101111 0.0
0.103414 -0.00637006 0.0
0.131472 0.00758407 0.0
0.160712 0.00843133 0.0
0.0542471 0.00165726 0.0
0.0981824 0.00519198 0.0
0 0 0.0
0.161445 -0.0115278 0.0
0.185441 -0.0111603 0.0
0.240507 0.00173148 0.0
0.241785 -0.000433307 0.0
0.232568 -0.0052786 0.0
0.22117 -0.0077472 0.0
0.238543 -0.00304694 0.0
0.232747 0.00423658 0.0
0.222176 0.00589925 0.0
0.185363 0.00942915 0.0
0.205564 0.00836198 0.0
0.205571 -0.00965955 0.0
0 0 0.0
0.0620338 -0.00214335 0.0
0.137428 -0.0111784 0.0
0.108187 -0.00689894 0.0
0.133368 0.00929214 0.0
0.160649 0.0106355 0.0
0 0 0.0
0.102105 0.00604625 0.0
0.0573657 0.00189192 0.0
0.184255 -0.0134449 0.0
0.162037 -0.013515 0.0
0.219161 -0.00916694 0.0
0.238127 0.00220856 0.0
0.239138 -0.000486315 0.0
0.236374 -0.00353582 0.0
0.230572 -0.00619863 0.0
0.230219 0.00528562 0.0
0.220005 0.00744224 0.0
0.183756 0.0122618 0.0
0.20353 0.0103969 0.0
0.203554 -0.0117993 0.0
0 0 0.0
0.0660757 -0.0021052 0.0
0.112841 -0.00702673 0.0
0.141054 -0.0119169 0.0
0.136466 0.0107757 0.0
0.160982 0.012589 0.0
0 0 0.0
0.0611909 0.00203279 0.0
0.106137 0.006558 0.0
0.183511 -0.0149082 0.0
0.16327 -0.0148843 0.0
0.216883 -0.0106077 0.0
0.226179 -0.0079324 0.0
0.235177 0.00273183 0.0
0.235894 -0.000544367 0.0
0.233861 -0.0040594 0.0
0.227133 0.00640789 0.0
0.217327 0.00908315 0.0
0.182868 0.013734 0.0
0.201238 0.0123685 0.0
0.201328 -0.0137922 0.0
0 0 0.0
0.0699329 -0.00194833 0.0
0.146245 -0.0118966 0.0
0.11883 -0.00669618 0.0
0.139405 0.0113837 0.0
0.161935 0.0140505 0.0
0.0648144 0.00203868 0.0
0 0 0.0
0.111589 0.00672478 0.0
0.16525 -0.0154951 0.0
0.182831 -0.0165826 0.0
0.212602 -0.0126935 0.0
0.222411 -0.00908888 0.0
0.230093 -0.0047171 0.0
0.229836 0.00352412 0.0
0.232046 -0.000620557 0.0
0.223501 0.00747309 0.0
0.213044 0.0111605 0.0
0.181855 0.0155126 0.0
0.198865 0.0139783 0.0
0.199099 -0.0153517 0.0
0 0 0.0
0.0735738 -0.00174359 0.0
0.124029 -0.0061092 0.0
0.16792 -0.0152409 0.0
0.150279 -0.0113742 0.0
0.143513 0.011463 0.0
0.163222 0.0146656 0.0
0.0684526 0.00187599 0.0
0 0 0.0
0.11626 0.00649146 0.0
0.197403 -0.0161374 0.0
0.182896 -0.016927 0.0
0.21915 -0.00978086 0.0
0.209317 -0.0136521 0.0
0.223688 -0.00550345 0.0
0.227626 -0.000703879 0.0
0.226517 0.00386386 0.0
0.219453 0.00831001 0.0
0.210251 0.0120535 0.0
0.18167 0.0159338 0.0
0.166042 0.014533 0.0
0.196684 0.0149123 0.0
0 0 0.0
0.12842 -0.00531228 0.0
0.076683 -0.00152769 0.0
0.170506 -0.0144111 0.0
0.15593 -0.0100294 0.0
0.148066 0.0108631 0.0
0 0 0.0
0.0717872 0.00162528 0.0
0.121812 0.00580196 0.0
0.19602 -0.0162271 0.0
0.183645 -0.0162972 0.0
0.2158 -0.0102051 0.0
0.206139 -0.0138798 0.0
0.220053 -0.00572849 0.0
0.222801 -0.000791132 0.0
0.222954 0.0040774 0.0
0.168336 0.0137553 0.0
0.195121 0.0149931 0.0
0.215204 0.0086905 0.0
0.20749 0.0124822 0.0
0.181947 0.0156443 0.0
0 0 0.0
0.0790326 -0.00124595 0.0
0.132703 -0.00438295 0.0
0.173883 -0.0128174 0.0
0.160622 -0.00850598 0.0
0.126346 0.00490616 0.0
0.153401 0.00949924 0.0
0 0 0.0
0.0748725 0.0013074 0.0
0.194882 -0.0154546 0.0
0.184921 -0.0148404 0.0
0.211671 -0.0101953 0.0
0.203347 -0.013323 0.0
0.216306 -0.00579253 0.0
0.217768 -0.000909813 0.0
0.215922 0.0040084 0.0
0.171467 0.0120923 0.0
0.210975 0.00846271 0.0
0.193923 0.0143646 0.0
0.20324 0.0119908 0.0
0.183041 0.0139514 0.0
0 0 0.0
0.136507 -0.00335062 0.0
0.0812038 -0.000910895 0.0
0.177881 -0.0103943 0.0
0.164748 -0.00688679 0.0
0.129941 0.00396186 0.0
0.157875 0.00789633 0.0
0 0 0.0
0.0769791 0.0010955 0.0
0.186446 -0.0128198 0.0
0.194201 -0.0139174 0.0
0.207854 -0.00962021 0.0
0.211716 -0.00559888 0.0
0.201027 -0.0120705 0.0
0.212911 -0.00103681 0.0
0.211337 0.00354099 0.0
0.207078 0.00764898 0.0
0.209492 -0.00327537 0.0
0.174682 0.00997982 0.0
0.200658 0.0106829 0.0
0.192782 0.0121876 0.0
0.184029 0.0123938 0.0
0 0 0.0
0.139035 -0.00261251 0.0
0.0827811 -0.000723836 0.0
0.180425 -0.00874555 0.0
0.168248 -0.00536311 0.0
0.133166 0.00293321 0.0
0.161255 0.00639802 0.0
0 0 0.0
0.0786891 0.000766772 0.0
0.188087 -0.0105759 0.0
0.193977 -0.0119099 0.0
0.204548 -0.00864269 0.0
0.199239 -0.0104175 0.0
0.205963 -0.00497619 0.0
0.209151 0.000959685 0.0
0.20649 0.00490917 0.0
0.20182 0.0080736 0.0
0.206563 -0.00131405 0.0
0.177583 0.00767328 0.0
0.19576 0.00994438 0.0
0.190743 0.0101197 0.0
0.185757 0.0093187 0.0
0 0 0.0
0.141182 -0.00196326 0.0
0.0839186 -0.000535432 0.0
0.183114 -0.00684274 0.0
0.17107 -0.00408588 0.0
0.165009 0.00442463 0.0
0.135616 0.00199175 0.0
0 0 0.0
0.0800403 0.000455309 0.0
0.189663 -0.0084344 0.0
0.194021 -0.00978964 0.0
0.202806 -0.00445518 0.0
0.19794 -0.00866671 0.0
0.20188 -0.00744921 0.0
0.205161 0.00231705 0.0
0.201981 0.00538725 0.0
0.197481 0.00745308 0.0
0.20317 -0.00153328 0.0
0.180098 0.0054897 0.0
0.192291 0.00815777 0.0
0.187131 0.0068289 0.0
0 0 0.0
0.0846733 -0.000424925 0.0
0.142846 -0.00148507 0.0
0.172968 -0.0032387 0.0
0.191044 -0.00661419 0.0
0.185364 -0.00527909 0.0
0.167488 0.00290742 0.0
0.137322 0.00122816 0.0
0.0806749 0.000281769 0.0
0 0 0.0
0.197187 -0.0073328 0.0
0.194267 -0.00786267 0.0
0.200874 -0.00409487 0.0
0.199827 -0.00630085 0.0
0.196148 0.00531152 0.0
0.202023 0.00135229 0.0
0.199555 0.00375715 0.0
0.200541 -0.00179242 0.0
0.18826 0.00455971 0.0
0.182334 0.00321338 0.0
0.192241 0.00508957 0.0
0 0 0.0
0.0854138 -0.000338519 0.0
0.144169 -0.00117247 0.0
0.174713 -0.00250698 0.0
0.191987 -0.00552853 0.0
0.187494 -0.00394846 0.0
0.169198 0.00167873 0.0
0.138488 0.000557175 0.0
0.0810536 0.00011091 0.0
0 0 0.0
0.170396 0.000711368 0.0
0.196663 -0.0062031 0.0
0.194683 -0.0059109 0.0
0.197854 -0.00502416 0.0
0.199328 -0.0038071 0.0
0.194913 0.00269674 0.0
0.197725 0.00219586 0.0
0.19961 0.000394157 0.0
0.198579 -0.00208667 0.0
0.18917 0.00265464 0.0
0.183713 0.00171707 0.0
0.19231 0.00305357 0.0
0 0 0.0
0.0860045 -0.000289476 0.0
0.145157 -0.00103418 0.0
0.176069 -0.00209998 0.0
0.193012 -0.00447899 0.0
0.188858 -0.00326717 0.0
0.0810713 -1.69268e-05 0.0
0.139042 0.000100742 0.0
0 0 0.0
0.170929 9.14409e-05 0.0
0.19629 -0.00519999 0.0
0.195063 -0.00491393 0.0
0.196988 -0.00445602 0.0
0.197847 -0.00358888 0.0
0.194386 0.00136753 0.0
0.196368 0.000814791 0.0
0.197176 -0.0024334 0.0
0.197151 -0.000873621 0.0
0.189624 0.00148806 0.0
0.184548 0.000566814 0.0
0.192329 0.00138752 0.0
0 0 0.0
0.086598 -0.000299065 0.0
0.145969 -0.00102044 0.0
0.177282 -0.00189922 0.0
0.194039 -0.00374665 0.0
0.195424 -0.00433474 0.0
0.18993 -0.00292908 0.0
0.0810533 -0.000119347 0.0
0.139181 -0.000229143 0.0
0 0 0.0
0.17125 -0.000457774 0.0
0.196057 -0.00442811 0.0
0.196511 -0.00421546 0.0
0.196817 -0.00355143 0.0
0.196396 -0.0027255 0.0
0.193964 0.000237795 0.0
0.195377 -0.000361464 0.0
0.196037 -0.00164295 0.0
0.185067 -0.000308681 0.0
0.19003 0.000240942 0.0
0.192301 7.09283e-05 0.0
0 0 0.0
0.0871618 -0.000370335 0.0
0.146823 -0.00109647 0.0
0.178228 -0.00195182 0.0
0.194589 -0.00358905 0.0
0.195775 -0.00410109 0.0
0.190844 -0.00285445 0.0
0.0808266 -0.000200418 0.0
0.139094 -0.000470597 0.0
0 0 0.0
0.185159 -0.000843615 0.0
0.138762 -0.000641262 0.0
0.171204 -0.000915669 0.0
0.196055 -0.0042859 0.0
0.196185 -0.00413153 0.0
0.195888 -0.00379931 0.0
0.19581 -0.00304366 0.0
0.195386 -0.00219494 0.0
0.193547 -0.000881495 0.0
0.19441 -0.00170562 0.0
0.19021 -0.000912805 0.0
0.192233 -0.000829814 0.0
0.196108 -0.0043552 0.0
0 0 0.0
0.0878181 -0.000423995 0.0
0.179134 -0.0021458 0.0
0.147697 -0.00126519 0.0
0.196138 -0.00419112 0.0
0.195357 -0.00366313 0.0
0.19163 -0.00301345 0.0
0.0805182 -0.000246358 0.0
0 0 0.0
0.19021 -0.00145728 0.0
0.185161 -0.00138059 0.0
0.171008 -0.00122954 0.0
0.0799706 -0.000256223 0.0
0.138366 -0.000791194 0.0
0.195945 -0.00427264 0.0
0.195574 -0.00407163 0.0
0.195219 -0.00352978 0.0
0.194887 -0.00394913 0.0
0.194874 -0.00271948 0.0
0.19318 -0.00180015 0.0
0.193892 -0.00250957 0.0
0.192079 -0.00156525 0.0
0.196172 -0.00459579 0.0
0.0885129 -0.000511326 0.0
0 0 0.0
0.179865 -0.00240206 0.0
0.148632 -0.00149152 0.0
0.196479 -0.00452704 0.0
0.195802 -0.00390342 0.0
0.192407 -0.00336145 0.0
0 0 0.0
0.190027 -0.00205748 0.0
0.184838 -0.00189222 0.0
0.170594 -0.00144531 0.0
0.0795525 -0.000299124 0.0
0.13777 -0.000917489 0.0
0.195766 -0.00481693 0.0
0.195341 -0.00442166 0.0
0.194601 -0.00440312 0.0
0.194155 -0.00366378 0.0
0.192822 -0.00257557 0.0
0.193452 -0.00324124 0.0
0.191757 -0.00249277 0.0
0.196324 -0.00510669 0.0
0 0 0.0
0.0894934 -0.000609294 0.0
0.180811 -0.00283185 0.0
0.149631 -0.00176837 0.0
0.193147 -0.00388129 0.0
0.19684 -0.00509512 0.0
0.196507 -0.0045371 0.0
0 0 0.0
0 0 0.0
0.189716 -0.00258158 0.0
0.184492 -0.00227565 0.0
0.170108 -0.00168492 0.0
0.137092 -0.00103742 0.0
0.0790068 -0.000350548 0.0
0.195708 -0.00543083 0.0
0.195093 -0.00501568 0.0
0.193117 -0.00379938 0.0
0.194272 -0.00508513 0.0
0.193738 -0.004355 0.0
0.192444 -0.00327692 0.0
0.191396 -0.00310808 0.0
0.195669 -0.006056 0.0
0.196446 -0.00582229 0.0
0.0906889 -0.0007419 0.0
0.150883 -0.00212354 0.0
0.18191 -0.00340127 0.0
0.193851 -0.00443171 0.0
0.197201 -0.00586187 0.0
0.196944 -0.00511718 0.0
0 0 0.0
0 0 0.0
0.184005 -0.00255288 0.0
0.189138 -0.00317129 0.0
0.136349 -0.0011423 0.0
0.169309 -0.00194641 0.0
0.0783631 -0.000385702 0.0
0.194806 -0.00608774 0.0
0.193935 -0.00587531 0.0
0.190963 -0.00369171 0.0
0.192769 -0.00435474 0.0
0.193428 -0.00492166 0.0
0.191856 -0.0041672 0.0
0.19563 -0.00676335 0.0
0.196657 -0.00710784 0.0
0.197554 -0.00686582 0.0
0.0920988 -0.000950803 0.0
0.152469 -0.0026028 0.0
0.1833 -0.00428478 0.0
0.194717 -0.00525833 0.0
0.197699 -0.00630208 0.0
0 0 0.0
0 0 0.0
0.183231 -0.00296735 0.0
0.188583 -0.00364612 0.0
0.135432 -0.00127761 0.0
0.168491 -0.00217796 0.0
0.0776572 -0.000416904 0.0
0.193105 -0.0055222 0.0
0.193573 -0.00675405 0.0
0.194551 -0.00703853 0.0
0.190431 -0.00426434 0.0
0.192313 -0.00507892 0.0
0.191343 -0.00484692 0.0
0.187912 -0.00412548 0.0
0.195476 -0.00830808 0.0
0 0 0.0
0.196717 -0.00835044 0.0
0.198349 -0.00752162 0.0
0.197882 -0.00807433 0.0
0.093774 -0.00117694 0.0
0.184622 -0.00509978 0.0
0.154588 -0.00333947 0.0
0.195907 -0.00663133 0.0
0 0 0.0
0 0 0.0
0 0 0.0
0 0 0.0
0 0 0.0
0.0769478 -0.000447839 0.0
0.167626 -0.0024212 0.0
0.182474 -0.00332632 0.0
0.134586 -0.00138725 0.0
0.192639 -0.00634591 0.0
0.193132 -0.00775779 0.0
0.194263 -0.00812856 0.0
0.190845 -0.00540428 0.0
0.189779 -0.00485347 0.0
0.191546 -0.00615947 0.0
0.189159 -0.00536997 0.0
0.187287 -0.00448621 0.0
0.195242 -0.00967223 0.0
0.196736 -0.00975932 0.0
0 0 0.0
-0.000443099 0.000258713 0.0
0 0 0.0
-0.000807699 0.008916 0.0
0.19819 -0.00957987 0.0
0.198849 -0.00862022 0.0
0.0960623 -0.00150745 0.0
0.186302 -0.00625634 0.0
0.156951 -0.00422648 0.0
0.197073 -0.00812514 0.0
0 0 0.0
0 0 0.0
0 0 0.0
-0.000683533 0.00654673 0.0
-0.000529411 0.00162411 0.0
-0.00142163 0.00147141 0.0
0 0 0.0
0.0761071 -0.000486306 0.0
0.166728 -0.00262138 0.0
0.18156 -0.00369422 0.0
0.133369 -0.00152497 0.0
0.192102 -0.00726514 0.0
0.192587 -0.00888121 0.0
0.193862 -0.00936565 0.0
0.190276 -0.0059979 0.0
0.191025 -0.00684143 0.0
0.188429 -0.00589601 0.0
0.186124 -0.00511511 0.0
0.19491 -0.0112112 0.0
0.196216 -0.0112926 0.0
0.197547 -0.0111868 0.0
0 0 0.0
-0.00166212 0.000572265 0.0
0 0 0.0
0 0 0.0
-0.00269033 0.0153841 0.0
-0.00282537 0.0121056 0.0
0.198739 -0.0109807 0.0
0.199485 -0.0104161 0.0
0.159499 -0.00525706 0.0
0.0987222 -0.00196126 0.0
0.18829 -0.00778172 0.0
0.19825 -0.00999059 0.0
0 0 0.0
-0.00191254 0.00550777 0.0
-0.0023999 0.00864258 0.0
-0.00232366 0.00366906 0.0
-0.00367424 0.00237105 0.0
0 0 0.0
0.0752174 -0.000525328 0.0
0.165592 -0.00286392 0.0
0.180498 -0.00406095 0.0
0.132177 -0.0016532 0.0
0.191447 -0.00826569 0.0
0.191907 -0.0101133 0.0
0.193317 -0.0107659 0.0
0.189189 -0.00703028 0.0
0.190423 -0.00754563 0.0
0.187448 -0.00655263 0.0
0.179399 -0.00445439 0.0
0.185077 -0.00564066 0.0
0.194501 -0.0125946 0.0
0.196464 -0.0127428 0.0
0.198472 -0.0128948 0.0
0 0 0.0
-0.00390612 0.000829464 0.0
0 0 0.0
0 0 0.0
0 0 0.0
0 0 0.0
-0.00546981 0.0115391 0.0
-0.000859633 0.0132411 0.0
-0.00277642 0.01819 0.0
-0.00596936 0.0201506 0.0
-0.005249 0.0159461 0.0
0 0 0.0
-0.000367259 0.0196273 0.0
0.200164 -0.0132563 0.0
0.199292 -0.0118353 0.0
0 0 0.0
0.102547 -0.00268019 0.0
0.163022 -0.00669039 0.0
0.191025 -0.0103046 0.0
0 0 0.0
0 0 0.0
-0.00465528 0.00786651 0.0
-0.00527297 0.00510368 0.0
-0.00665816 0.00283319 0.0
0 0 0.0
0.074196 -0.000565983 0.0
0.164144 -0.00315047 0.0
0.130841 -0.00177983 0.0
0.178307 -0.00474857 0.0
0.190655 -0.00935312 0.0
0.191279 -0.011116 0.0
0.192601 -0.0123407 0.0
0.188375 -0.00769067 0.0
0.189546 -0.0084836 0.0
0.186333 -0.0072225 0.0
0.184135 -0.0060267 0.0
0.197303 -0.0142868 0.0
0.193942 -0.0141195 0.0
0.195856 -0.0156898 0.0
0.198328 -0.0161028 0.0
0.200562 -0.0162186 0.0
0 0 0.0
-0.005699 0.000823981 0.0
-0.000611079 0.019397 0.0
-0.00265791 0.0288322 0.0
-0.000906798 0.0159594 0.0
-0.00798724 0.0140037 0.0
-0.0105071 0.0107542 0.0