# vtk DataFile Version 3.0
Mesh NS-CD Problem
ASCII
DATASET UNSTRUCTURED_GRID
POINTS 10839 float
-2 0.3 0.0
-2 0.4 0.0
-2 0.35 0.0
-2 0.45 0.0
-2 0.5 0.0
-2 0.55 0.0
-2 0 0.0
-2 0.05 0.0
-2 0.85 0.0
-2 0.9 0.0
-2 0.1 0.0
-2 0.15 0.0
-2 0.25 0.0
-2 0.2 0.0
-1.96653 0.266667 0.0
-1.96524 0.415385 0.0
-1.96485 0.315 0.0
-1.96348 0.363636 0.0
-1.96414 0.464286 0.0
-2 0.6 0.0
-1.96538 0.584615 0.0
-1.96538 0.538462 0.0
-1.94979 0 0.0
-1.96653 0.0666666 0.0
-1.93306 0.0333333 0.0
-2 0.8 0.0
-2 0.75 0.0
-2 0.7 0.0
-2 0.65 0.0
-1.96249 0.7375 0.0
-1.96666 0.833333 0.0
-2 1 0.0
-2 0.95 0.0
-1.96249 0.8875 0.0
-1.96666 0.933333 0.0
-1.96234 0.1125 0.0
-1.96653 0.166667 0.0
-1.93724 0.225 0.0
-1.92971 0.28 0.0
-1.93048 0.380769 0.0
-1.93048 0.423077 0.0
-1.89958 0.3375 0.0
-1.9292 0.484203 0.0
-1.92117 0.530907 0.0
-1.96363 0.636364 0.0
-1.93076 0.576923 0.0
-1.89958 0 0.0
-1.88703 0.0375 0.0
-1.90963 0.08 0.0
-1.86611 0.0666666 0.0
-1.93749 0.775 0.0
-1.93635 0.672727 0.0
-1.92999 0.72 0.0
-1.93332 0.866667 0.0
-1.92856 0.821429 0.0
-1.94999 1 0.0
-1.92499 0.9625 0.0
-1.92499 0.925 0.0
-1.89998 0.9 0.0
-1.89958 0.125 0.0
-1.92827 0.178571 0.0
-1.89958 0.233333 0.0
-1.89045 0.290909 0.0
-1.86096 0.311538 0.0
-1.89241 0.392857 0.0
-1.89334 0.448489 0.0
-1.85655 0.357143 0.0
-1.89614 0.653846 0.0
-1.89427 0.504121 0.0
-1.8952 0.559753 0.0
-1.89614 0.615385 0.0
-1.84937 0 0.0
-1.83264 0.0333333 0.0
-1.85655 0.107143 0.0
-1.81172 0.075 0.0
-1.89998 0.766667 0.0
-1.89089 0.709091 0.0
-1.87498 0.85 0.0
-1.85998 0.79 0.0
-1.88748 0.8125 0.0
-1.89998 1 0.0
-1.88748 0.9625 0.0
-1.86664 0.933333 0.0
-1.85712 0.892857 0.0
-1.87448 0.15 0.0
-1.86611 0.194444 0.0
-1.83264 0.133333 0.0
-1.83264 0.2625 0.0
-1.82068 0.321429 0.0
-1.85664 0.404762 0.0
-1.85674 0.452381 0.0
-1.85683 0.5 0.0
-1.81184 0.375 0.0
-1.85712 0.642857 0.0
-1.85693 0.547619 0.0
-1.85702 0.595238 0.0
-1.79917 0 0.0
-1.78482 0.0357143 0.0
-1.79917 0.116667 0.0
-1.76569 0.0666666 0.0
-1.85452 0.745455 0.0
-1.82689 0.692308 0.0
-1.81815 0.781818 0.0
-1.82497 0.825 0.0
-1.84997 1 0.0
-1.8333 0.958333 0.0
-1.81247 0.8875 0.0
-1.81247 0.925 0.0
-1.81742 0.218182 0.0
-1.82427 0.175 0.0
-1.77634 0.145455 0.0
-1.79144 0.242308 0.0
-1.78482 0.285714 0.0
-1.77469 0.332653 0.0
-1.81215 0.529762 0.0
-1.81194 0.422619 0.0
-1.81203 0.470238 0.0
-1.76714 0.392857 0.0
-1.81234 0.625 0.0
-1.79732 0.571429 0.0
-1.74896 0 0.0
-1.73222 0.0333333 0.0
-1.75398 0.105 0.0
-1.71883 0.07 0.0
-1.79227 0.730769 0.0
-1.78007 0.679121 0.0
-1.75765 0.769231 0.0
-1.78178 0.818182 0.0
-1.78996 0.86 0.0
-1.79996 1 0.0
-1.78568 0.964286 0.0
-1.76663 0.922222 0.0
-1.76569 0.1875 0.0
-1.73222 0.15 0.0
-1.74896 0.25 0.0
-1.73714 0.304762 0.0
-1.76743 0.537202 0.0
-1.72869 0.343878 0.0
-1.76732 0.485119 0.0
-1.76723 0.440476 0.0
-1.72243 0.410714 0.0
-1.76757 0.607143 0.0
-1.69875 0 0.0
-1.68369 0.035 0.0
-1.69875 0.1125 0.0
-1.66528 0.075 0.0
-1.74341 0.708974 0.0
-1.73324 0.665934 0.0
-1.70441 0.74478 0.0
-1.71423 0.785714 0.0
-1.72303 0.826923 0.0
-1.74541 0.854545 0.0
-1.74541 0.890909 0.0
-1.74996 1 0.0
-1.73745 0.9625 0.0
-1.71359 0.927273 0.0
-1.68716 0.153846 0.0
-1.7131 0.214286 0.0
-1.70725 0.275 0.0
-1.69712 0.321939 0.0
-1.72279 0.589286 0.0
-1.72261 0.5 0.0
-1.7227 0.544643 0.0
-1.6827 0.355102 0.0
-1.67773 0.428571 0.0
-1.70763 0.464286 0.0
-1.70369 0.62449 0.0
-1.64854 0 0.0
-1.63181 0.0375 0.0
-1.64137 0.142857 0.0
-1.61764 0.0769231 0.0
-1.69458 0.703846 0.0
-1.67471 0.657437 0.0
-1.66143 0.727637 0.0
-1.67125 0.768571 0.0
-1.67851 0.821429 0.0
-1.68841 0.861538 0.0
-1.70904 0.890909 0.0
-1.69995 1 0.0
-1.68176 0.963636 0.0
-1.67267 0.927273 0.0
-1.65427 0.187143 0.0
-1.66718 0.231429 0.0
-1.66554 0.3 0.0
-1.67802 0.571429 0.0
-1.67792 0.523809 0.0
-1.6367 0.366327 0.0
-1.63682 0.423469 0.0
-1.62568 0.502976 0.0
-1.6629 0.470238 0.0
-1.65254 0.618367 0.0
-1.6059 0.307143 0.0
-1.59833 0 0.0
-1.58288 0.0384615 0.0
-1.60563 0.169643 0.0
-1.58179 0.112271 0.0
-1.56964 0.0714286 0.0
-1.64574 0.690385 0.0
-1.62827 0.751429 0.0
-1.63371 0.791071 0.0
-1.64279 0.857143 0.0
-1.65378 0.896154 0.0
-1.64994 1 0.0
-1.6363 0.963636 0.0
-1.61916 0.930769 0.0
-1.61345 0.209107 0.0
-1.62126 0.248571 0.0
-1.56989 0.196429 0.0
-1.63324 0.553571 0.0
-1.58846 0.535714 0.0
-1.59408 0.361905 0.0
-1.59161 0.402211 0.0
-1.58832 0.464286 0.0
-1.61504 0.598581 0.0
-1.59683 0.64359 0.0
-1.57899 0.274107 0.0
-1.56176 0.322381 0.0
-1.54812 0 0.0
-1.53378 0.0357143 0.0
-1.54593 0.147619 0.0
-1.53385 0.0732143 0.0
-1.53393 0.110714 0.0
-1.58522 0.704286 0.0
-1.58709 0.745 0.0
-1.58896 0.785714 0.0
-1.60695 0.830357 0.0
-1.60707 0.892857 0.0
-1.59993 1 0.0
-1.58454 0.965385 0.0
-1.57135 0.928571 0.0
-1.55209 0.241071 0.0
-1.5291 0.198214 0.0
-1.56936 0.570918 0.0
-1.54369 0.517857 0.0
-1.5464 0.380952 0.0
-1.54564 0.427721 0.0
-1.54488 0.47449 0.0
-1.55026 0.606122 0.0
-1.54222 0.677143 0.0
-1.52943 0.282857 0.0
-1.52143 0.33619 0.0
-1.49792 0 0.0
-1.49802 0.05 0.0
-1.49822 0.15 0.0
-1.49312 0.1 0.0
-1.5423 0.717143 0.0
-1.54419 0.767857 0.0
-1.54727 0.819048 0.0
-1.57122 0.861905 0.0
-1.53553 0.914286 0.0
-1.54992 1 0.0
-1.53563 0.964286 0.0
-1.49842 0.25 0.0
-1.48831 0.2 0.0
-1.5214 0.558929 0.0
-1.49891 0.5 0.0
-1.49871 0.4 0.0
-1.47631 0.45 0.0
-1.49911 0.6 0.0
-1.49921 0.65 0.0
-1.49931 0.7 0.0
-1.48111 0.35 0.0
-1.48351 0.3 0.0
-1.44771 0 0.0
-1.44782 0.05 0.0
-1.44804 0.15 0.0
-1.44793 0.1 0.0
-1.49941 0.75 0.0
-1.49951 0.8 0.0
-1.49981 0.95 0.0
-1.49961 0.85 0.0
-1.49971 0.9 0.0
-1.49991 1 0.0
-1.44826 0.25 0.0
-1.43815 0.2 0.0
-1.47151 0.55 0.0
-1.44881 0.5 0.0
-1.44859 0.4 0.0
-1.42619 0.45 0.0
-1.44913 0.65 0.0
-1.44902 0.6 0.0
-1.44935 0.75 0.0
-1.44924 0.7 0.0
-1.43972 0.35 0.0
-1.43336 0.3 0.0
-1.3975 0 0.0
-1.39762 0.05 0.0
-1.39786 0.15 0.0
-1.39274 0.1 0.0
-1.44957 0.85 0.0
-1.44946 0.8 0.0
-1.4523 0.95 0.0
-1.44968 0.9 0.0
-1.4499 1 0.0
-1.3981 0.25 0.0
-1.38798 0.2 0.0
-1.42141 0.55 0.0
-1.3987 0.5 0.0
-1.39834 0.35 0.0
-1.37845 0.4 0.0
-1.37607 0.45 0.0
-1.40784 0.65 0.0
-1.39894 0.6 0.0
-1.41185 0.75 0.0
-1.39918 0.7 0.0
-1.38322 0.3 0.0
-1.34729 0 0.0
-1.34492 0.05 0.0
-1.34018 0.15 0.0
-1.34255 0.1 0.0
-1.40707 0.85 0.0
-1.39941 0.8 0.0
-1.39977 0.95 0.0
-1.39965 0.9 0.0
-1.39989 1 0.0
-1.33781 0.2 0.0
-1.33544 0.25 0.0
-1.37131 0.55 0.0
-1.34859 0.5 0.0
-1.33833 0.4 0.0
-1.3307 0.35 0.0
-1.32595 0.45 0.0
-1.34885 0.6 0.0
-1.36655 0.65 0.0
-1.36179 0.75 0.0
-1.34911 0.7 0.0
-1.33307 0.3 0.0
-1.29708 0 0.0
-1.29722 0.05 0.0
-1.2975 0.15 0.0
-1.29236 0.1 0.0
-1.35703 0.85 0.0
-1.34937 0.8 0.0
-1.34988 1 0.0
-1.34962 0.9 0.0
-1.35226 0.95 0.0
-1.28528 0.25 0.0
-1.28764 0.2 0.0
-1.28931 0.35 0.0
-1.32121 0.55 0.0
-1.29848 0.5 0.0
-1.28709 0.45 0.0
-1.2982 0.4 0.0
-1.29876 0.6 0.0
-1.31647 0.65 0.0
-1.29918 0.75 0.0
-1.29904 0.7 0.0
-1.28292 0.3 0.0
-1.24687 0 0.0
-1.24702 0.05 0.0
-1.24717 0.1 0.0
-1.24732 0.15 0.0
-1.29946 0.85 0.0
-1.29932 0.8 0.0
-1.29987 1 0.0
-1.29974 0.95 0.0
-1.30462 0.9 0.0
-1.24762 0.25 0.0
-1.23747 0.2 0.0
-1.24792 0.35 0.0
-1.22807 0.4 0.0
-1.27111 0.55 0.0
-1.24837 0.5 0.0
-1.24822 0.45 0.0
-1.24867 0.6 0.0
-1.26639 0.65 0.0
-1.26167 0.75 0.0
-1.24897 0.7 0.0
-1.23277 0.3 0.0
-1.19667 0 0.0
-1.19683 0.05 0.0
-1.18964 0.15 0.0
-1.19198 0.1 0.0
-1.25695 0.85 0.0
-1.24927 0.8 0.0
-1.25223 0.95 0.0
-1.24987 1 0.0
-1.24957 0.9 0.0
-1.1873 0.2 0.0
-1.18496 0.25 0.0
-1.18028 0.35 0.0
-1.17794 0.4 0.0
-1.1981 0.45 0.0
-1.19842 0.55 0.0
-1.19826 0.5 0.0
-1.19858 0.6 0.0
-1.19874 0.65 0.0
-1.19906 0.75 0.0
-1.1989 0.7 0.0
-1.18262 0.3 0.0
-1.14646 0 0.0
-1.14663 0.05 0.0
-1.1418 0.1 0.0
-1.13713 0.2 0.0
-1.14697 0.15 0.0
-1.20691 0.85 0.0
-1.20926 0.8 0.0
-1.20221 0.95 0.0
-1.19986 1 0.0
-1.20456 0.9 0.0
-1.13997 0.3 0.0
-1.14731 0.25 0.0
-1.13781 0.4 0.0
-1.13014 0.35 0.0
-1.12548 0.45 0.0
-1.14815 0.5 0.0
-1.15962 0.55 0.0
-1.14849 0.6 0.0
-1.15745 0.65 0.0
-1.16155 0.75 0.0
-1.14917 0.8 0.0
-1.14883 0.7 0.0
-1.09625 0 0.0
-1.09661 0.1 0.0
-1.09393 0.05 0.0
-1.09697 0.2 0.0
-1.08929 0.15 0.0
-1.15687 0.85 0.0
-1.14985 1 0.0
-1.15219 0.95 0.0
-1.14951 0.9 0.0
-1.09733 0.3 0.0
-1.08465 0.25 0.0
-1.09769 0.4 0.0
-1.08 0.35 0.0
-1.08661 0.45 0.0
-1.09804 0.5 0.0
-1.12082 0.55 0.0
-1.10916 0.8 0.0
-1.10629 0.7 0.0
-1.0984 0.6 0.0
-1.11616 0.65 0.0
-1.11149 0.75 0.0
-1.04604 0 0.0
-1.04623 0.05 0.0
-1.04642 0.1 0.0
-1.0468 0.2 0.0
-1.03911 0.15 0.0
-1.09948 0.9 0.0
-1.0993 0.85 0.0
-1.09984 1 0.0
-1.09966 0.95 0.0
-1.04718 0.3 0.0
-1.03449 0.25 0.0
-1.04756 0.4 0.0
-1.02986 0.35 0.0
-1.04775 0.45 0.0
-1.04794 0.5 0.0
-1.04813 0.55 0.0
-1.05911 0.8 0.0
-1.04831 0.6 0.0
-1.06376 0.7 0.0
-1.0485 0.65 0.0
-1.04888 0.75 0.0
-0.995833 0 0.0
-0.991231 0.1 0.0
-0.996033 0.05 0.0
-0.986629 0.2 0.0
-0.98893 0.15 0.0
-1.05447 0.9 0.0
-1.04926 0.85 0.0
-1.04983 1 0.0
-1.04964 0.95 0.0
-0.984328 0.25 0.0
-0.99703 0.3 0.0
-0.997429 0.4 0.0
-0.997628 0.45 0.0
-0.979726 0.35 0.0
-0.997827 0.5 0.0
-0.998027 0.55 0.0
-0.998226 0.6 0.0
-0.961416 0.475 0.0
-1.00907 0.8 0.0
-0.998426 0.65 0.0
-0.998625 0.7 0.0
-1.01138 0.75 0.0
-0.945625 0 0.0
-0.946044 0.1 0.0
-0.943334 0.05 0.0
-0.946463 0.2 0.0
-0.938752 0.15 0.0
-1.00444 0.9 0.0
-1.00675 0.85 0.0
-0.999821 1 0.0
-1.00213 0.95 0.0
-0.93417 0.25 0.0
-0.946881 0.3 0.0
-0.9473 0.4 0.0
-0.929588 0.35 0.0
-0.925005 0.45 0.0
-0.960371 0.525 0.0
-0.959325 0.575 0.0
-0.958279 0.625 0.0
-0.922714 0.5 0.0
-0.959017 0.8 0.0
-0.957233 0.675 0.0
-0.952999 0.7125 0.0
-0.948766 0.75 0.0
-0.895417 0 0.0
-0.895855 0.1 0.0
-0.893136 0.05 0.0
-0.896294 0.2 0.0
-0.888573 0.15 0.0
-0.949184 0.85 0.0
-0.954415 0.9 0.0
-0.949812 1 0.0
-0.949603 0.95 0.0
-0.884011 0.25 0.0
-0.896733 0.3 0.0
-0.874887 0.45 0.0
-0.879449 0.35 0.0
-0.897171 0.4 0.0
-0.920423 0.55 0.0
-0.918132 0.6 0.0
-0.915841 0.65 0.0
-0.872606 0.5 0.0
-0.908968 0.8 0.0
-0.91355 0.7 0.0
-0.898707 0.75 0.0
-0.845208 0 0.0
-0.845438 0.05 0.0
-0.845667 0.1 0.0
-0.845896 0.15 0.0
-0.833853 0.25 0.0
-0.846126 0.2 0.0
-0.899146 0.85 0.0
-0.904386 0.9 0.0
-0.899584 0.95 0.0
-0.899804 1 0.0
-0.838062 0.35 0.0
[...]
POINT_DATA 10839
VECTORS Velocity float
0.21 0 0.0
0.24 0 0.0
0.2275 0 0.0
0.2475 0 0.0
0.25 0 0.0
0.2475 0 0.0
0 0 0.0
0.0475 0 0.0
0.1275 0 0.0
0.09 0 0.0
0.09 0 0.0
0.1275 0 0.0
0.1875 0 0.0
0.16 0 0.0
0.195577 -0.000160923 0.0
0.242821 -0.000136058 0.0
0.215775 -0.000198422 0.0
0.231394 -0.000194034 0.0
0.248693 -6.34553e-05 0.0
0.24 0 0.0
0.24282 0.000105875 0.0
0.24849 2.94636e-05 0.0
0 0 0.0
0.0622095 0.000127824 0.0
0.0320153 0.000179521 0.0
0.16 0 0.0
0.1875 0 0.0
0.21 0 0.0
0.2275 0 0.0
0.193617 0.000155867 0.0
0.138924 -2.19021e-05 0.0
0 0 0.0
0.0475 0 0.0
0.0998643 -0.000150927 0.0
0.0622069 -0.000132419 0.0
0.0998755 0.000128979 0.0
0.138924 9.4782e-06 0.0
0.174465 -0.000213804 0.0
0.201653 -0.000412329 0.0
0.235724 -0.000379877 0.0
0.243995 -0.000279877 0.0
0.223559 -0.000701615 0.0
0.249626 -7.94949e-05 0.0
0.248908 8.55753e-05 0.0
0.231389 0.000160327 0.0
0.243995 0.000226905 0.0
0 0 0.0
0.0353436 0.00034929 0.0
0.0735039 0.000626296 0.0
0.0617016 0.000566966 0.0
0.174458 0.0001734 0.0
0.220158 0.000339348 0.0
0.201657 0.000368433 0.0
0.115703 -0.000264362 0.0
0.146861 7.48471e-06 0.0
0 0 0.0
0.0358029 -0.000245301 0.0
0.0692631 -0.000516875 0.0
0.0901509 -0.000681589 0.0
0.109742 0.000492275 0.0
0.146857 -4.42693e-05 0.0
0.179154 -0.000501827 0.0
0.206379 -0.000819522 0.0
0.214506 -0.00122795 0.0
0.238336 -0.000637065 0.0
0.247078 -0.000356692 0.0
0.229357 -0.00118218 0.0
0.226261 0.000667058 0.0
0.249692 -7.47871e-06 0.0
0.246179 0.000303463 0.0
0.236534 0.000535068 0.0
0 0 0.0
0.0310326 8.70248e-05 0.0
0.0961201 0.000390814 0.0
0.0693945 -0.00082336 0.0
0.179138 0.000428499 0.0
0.206349 0.000737039 0.0
0.128185 -0.000234337 0.0
0.166583 0.000652139 0.0
0.152843 0.000171695 0.0
0 0 0.0
0.0353346 -0.000354795 0.0
0.0616921 -0.000580614 0.0
0.0961043 -0.000413186 0.0
0.128207 0.000187498 0.0
0.157342 -0.00047794 0.0
0.116618 -0.00044273 0.0
0.194072 -0.00160581 0.0
0.217992 -0.00195185 0.0
0.240507 -0.000897299 0.0
0.247194 -0.000513072 0.0
0.249419 -6.40093e-05 0.0
0.233737 -0.00175908 0.0
0.229359 0.0010513 0.0
0.247195 0.0003812 0.0
0.240494 0.000783623 0.0
0 0 0.0
0.0339027 -0.000507201 0.0
0.10408 -0.0019043 0.0
0.0636282 -0.00248814 0.0
0.190133 0.00111033 0.0
0.213033 0.00171145 0.0
0.171572 0.00162598 0.0
0.145646 0.000937818 0.0
0 0 0.0
0.0387672 -7.39098e-05 0.0
0.100676 0.00112595 0.0
0.06932 0.00075213 0.0
0.171676 -0.00174405 0.0
0.145665 -0.00106948 0.0
0.125738 -0.00367487 0.0
0.184486 -0.00278414 0.0
0.204291 -0.00304287 0.0
0.22143 -0.00304904 0.0
0.248016 0.000352311 0.0
0.243076 -0.00120538 0.0
0.248023 -0.000524287 0.0
0.237096 -0.00239455 0.0
0.23371 0.00161282 0.0
0.243737 0.00111775 0.0
0 0 0.0
0.0341665 -0.0011419 0.0
0.0958021 -0.00495846 0.0
0.0701703 -0.00482993 0.0
0.197208 0.00265825 0.0
0.217505 0.00284628 0.0
0.178491 0.00437551 0.0
0.150185 0.00308734 0.0
0.121664 0.00251201 0.0
0 0 0.0
0.0338506 0.000468378 0.0
0.0731944 0.00307744 0.0
0.153807 -0.00426816 0.0
0.128776 -0.00769516 0.0
0.188161 -0.00490671 0.0
0.211343 -0.00490455 0.0
0.246697 0.000778691 0.0
0.224141 -0.00452182 0.0
0.24782 -0.000433734 0.0
0.244655 -0.00142996 0.0
0.239343 -0.00300167 0.0
0.237072 0.00216817 0.0
0 0 0.0
0.0400219 -0.00186321 0.0
0.104077 -0.00981361 0.0
0.0809963 -0.00744664 0.0
0.206065 0.00464748 0.0
0.221195 0.00435344 0.0
0.18969 0.00811837 0.0
0.168766 0.00830466 0.0
0.144078 0.00840459 0.0
0.125586 0.00627798 0.0
0.0991913 0.00577525 0.0
0 0 0.0
0.0379391 0.00135123 0.0
0.072929 0.0053012 0.0
0.131566 -0.0125562 0.0
0.168875 -0.00842771 0.0
0.198771 -0.00739926 0.0
0.216411 -0.00677723 0.0
0.239313 0.00271026 0.0
0.246806 -0.000101509 0.0
0.244923 0.00136687 0.0
0.225874 -0.00637923 0.0
0.240319 -0.00348507 0.0
0.245115 -0.00145378 0.0
0.231713 0.00447137 0.0
0 0 0.0
0.0488331 -0.00251313 0.0
0.126284 -0.0164181 0.0
0.0900405 -0.00876666 0.0
0.206954 0.0075875 0.0
0.22195 0.00716249 0.0
0.195762 0.0115823 0.0
0.176568 0.0123885 0.0
0.146702 0.0133229 0.0
0.12158 0.011932 0.0
0.100876 0.00874224 0.0
0 0 0.0
0.0416783 0.00200036 0.0
0.0779257 0.00689535 0.0
0.151679 -0.0160333 0.0
0.176561 -0.0130397 0.0
0.207363 -0.00990127 0.0
0.240307 0.00319636 0.0
0.244462 0.00095142 0.0
0.226432 -0.0085792 0.0
0.237442 -0.00502203 0.0
0.241977 3.81341e-05 0.0
0.243433 -0.0016923 0.0
0.230803 0.00648566 0.0
0.206341 -0.0152672 0.0
0 0 0.0
0.0562687 -0.00265942 0.0
0.142536 -0.020428 0.0
0.117963 -0.0151573 0.0
0.0940953 -0.00783241 0.0
0.209722 0.0109963 0.0
0.183047 0.016593 0.0
0.163122 0.0176375 0.0
0.126315 0.0162479 0.0
0.10263 0.0118254 0.0
0 0 0.0
0.0467709 0.00233303 0.0
0.0834104 0.00738339 0.0
0.162822 -0.020052 0.0
0.18289 -0.0175668 0.0
0.156579 -0.0235757 0.0
0.239886 0.00337358 0.0
0.237879 0.00294621 0.0
0.222227 -0.01194 0.0
0.230707 -0.00865649 0.0
0.237964 -0.00334034 0.0
0.23233 0.00711028 0.0
0.220917 0.0118768 0.0
0.191498 -0.0204456 0.0
0.207867 -0.0180956 0.0
0 0 0.0
0.0583111 -0.00212585 0.0
0.138194 -0.0204226 0.0
0.10193 -0.00769365 0.0
0.125413 -0.0144537 0.0
0.200359 0.0179619 0.0
0.183614 0.0205971 0.0
0.164703 0.0220785 0.0
0.142378 0.0202314 0.0
0.111079 0.0139012 0.0
0 0 0.0
0.0507529 0.00219371 0.0
0.0937214 0.00773094 0.0
0.176136 -0.0244035 0.0
0.158822 -0.0250402 0.0
0.232682 0.0068664 0.0
0.234187 0.00179209 0.0
0.222116 -0.0133889 0.0
0.230086 -0.00829562 0.0
0.234083 -0.00307006 0.0
0.225063 0.0113637 0.0
0.206011 0.0192749 0.0
0.191532 -0.0237208 0.0
0.208248 -0.0196025 0.0
0 0 0.0
0.0824501 -0.00351722 0.0
0.145516 -0.0197044 0.0
0.12742 -0.0113031 0.0
0.192124 0.0225389 0.0
0.171998 0.0248251 0.0
0.150753 0.0235458 0.0
0.13074 0.0190363 0.0
0.111021 0.00976485 0.0
0 0 0.0
0.0579401 0.00213216 0.0
0.178389 -0.026112 0.0
0.161869 -0.0247758 0.0
0.228717 0.00713967 0.0
0.22894 -0.000251865 0.0
0.220258 -0.0134149 0.0
0.223681 -0.00732494 0.0
0.220163 0.0129286 0.0
0.209449 0.0188173 0.0
0.195001 0.0234239 0.0
0.207695 -0.0198261 0.0
0.194182 -0.0241895 0.0
0 0 0.0
0.0882623 -0.00265996 0.0
0.152688 -0.0171016 0.0
0.134947 -0.00948097 0.0
0.178117 0.0258357 0.0
0.160817 0.0247186 0.0
0.0819527 0.00348897 0.0
0.144836 0.0196224 0.0
0.125803 0.0114192 0.0
0 0 0.0
0.17826 -0.0251552 0.0
0.165745 -0.0222812 0.0
0.222941 0.00686075 0.0
0.221777 -0.000271229 0.0
0.213894 -0.0143803 0.0
0.216636 -0.00756079 0.0
0.204103 0.0196337 0.0
0.213747 0.0138289 0.0
0.177884 0.0248068 0.0
0.191758 0.0235828 0.0
0.203455 -0.0200167 0.0
0.191285 -0.0235469 0.0
0 0 0.0
0.0929218 -0.00187177 0.0
0.159508 -0.0137999 0.0
0.142616 -0.00710343 0.0
0.152244 0.0169011 0.0
0.16441 0.02263 0.0
0.0874265 0.00266303 0.0
0.134221 0.00935599 0.0
0 0 0.0
0.179187 -0.0220224 0.0
0.169989 -0.0185004 0.0
0.215808 0.00696111 0.0
0.214435 -0.000327835 0.0
0.199764 -0.0188155 0.0
0.205338 -0.013161 0.0
0.20971 -0.00706211 0.0
0.200251 0.0186432 0.0
0.207517 0.0131684 0.0
0.178511 0.0225507 0.0
0.189509 0.0213053 0.0
0.189386 -0.020816 0.0
0 0 0.0
0.0961186 -0.0014008 0.0
0.166105 -0.0100016 0.0
0.148062 -0.00516529 0.0
0.157919 0.0140962 0.0
0.16862 0.0189927 0.0
0.0920729 0.00188955 0.0
0.141252 0.00718069 0.0
0 0 0.0
0.17396 -0.0143895 0.0
0.180941 -0.0167719 0.0
0.208992 0.00629212 0.0
0.207656 -0.000370943 0.0
0.20135 -0.0115282 0.0
0.194992 -0.0149479 0.0
0.203738 -0.00604183 0.0
0.20209 0.0112968 0.0
0.197006 0.0165359 0.0
0.179718 0.0185007 0.0
0.188143 0.017607 0.0
0.188278 -0.0169605 0.0
0 0 0.0
0.0981114 -0.00097144 0.0
0.170021 -0.00761954 0.0
0.152097 -0.00360249 0.0
0.16379 0.0107057 0.0
0.172575 0.0148477 0.0
0 0 0.0
0.146761 0.00516343 0.0
0.0951154 0.00132055 0.0
0.182467 -0.0126853 0.0
0.177313 -0.0106729 0.0
0.192973 -0.01219 0.0
0.203095 0.00512129 0.0
0.201942 -0.000427707 0.0
0.199918 -0.00511323 0.0
0.197942 -0.00967604 0.0
0.197712 0.00887473 0.0
0.19388 0.0132272 0.0
0.181496 0.0131036 0.0
0.187366 0.0135408 0.0
0.187694 -0.0130292 0.0
0 0 0.0
0.0997869 -0.000609791 0.0
0.154666 -0.00255168 0.0
0.17348 -0.00537464 0.0
0.169167 0.00728746 0.0
0.175992 0.0109469 0.0
0 0 0.0
0.0974018 0.000856754 0.0
0.150371 0.00367688 0.0
0.183475 -0.0100438 0.0
0.179987 -0.00767546 0.0
0.191391 -0.00963679 0.0
0.193605 -0.00661916 0.0
0.198396 0.0038075 0.0
0.197508 -0.000506626 0.0
0.196799 -0.00422113 0.0
0.194394 0.00648605 0.0
0.19162 0.00986381 0.0
0.182493 0.0102594 0.0
0.186944 0.00982107 0.0
0.187445 -0.00963725 0.0
0 0 0.0
0.100862 -0.00035688 0.0
0.176543 -0.00353399 0.0
0.157066 -0.00163806 0.0
0.172147 0.00529029 0.0
0.178675 0.00770191 0.0
0.0987144 0.000546961 0.0
0 0 0.0
0.153569 0.00230537 0.0
0.181972 -0.00543506 0.0
0.184753 -0.00662273 0.0
0.189683 -0.00634994 0.0
0.191579 -0.00492894 0.0
0.193777 -0.00325763 0.0
0.193581 0.00211256 0.0
0.194232 -0.000587256 0.0
0.191974 0.00444455 0.0
0.189537 0.00607014 0.0
0.18372 0.00643989 0.0
0.1867 0.00679224 0.0
0.187326 -0.00697432 0.0
0 0 0.0
0.101662 -0.000231205 0.0
0.158351 -0.001136 0.0
0.183445 -0.00384557 0.0
0.177984 -0.00258909 0.0
0.174732 0.00348972 0.0
0.180323 0.00565176 0.0
0.0996313 0.000310039 0.0
0 0 0.0
0.15539 0.00151425 0.0
0.187313 -0.00529444 0.0
0.185411 -0.00515724 0.0
0.190394 -0.00390419 0.0
0.188908 -0.00465979 0.0
0.190881 -0.00231574 0.0
0.191901 -0.000683628 0.0
0.191867 0.00139496 0.0
0.190255 0.00284727 0.0
0.188713 0.00431156 0.0
0.184306 0.00473329 0.0
0.182123 0.00337397 0.0
0.186537 0.00449373 0.0
0 0 0.0
0.159377 -0.000824404 0.0
0.102074 -0.000221051 0.0
0.184396 -0.00294362 0.0
0.179534 -0.00177467 0.0
0.176518 0.00220248 0.0
0 0 0.0
0.100168 0.000137174 0.0
0.156813 0.000850469 0.0
0.187343 -0.00405758 0.0
0.186168 -0.00347078 0.0
0.189535 -0.00315735 0.0
0.188396 -0.00349819 0.0
0.1899 -0.00200689 0.0
0.190295 -0.000794274 0.0
0.19053 0.000802471 0.0
0.182895 0.00229974 0.0
0.186452 0.00302684 0.0
0.189071 0.0016505 0.0
0.188072 0.00293663 0.0
0.184824 0.00300699 0.0
0 0 0.0
0.102198 -0.000157599 0.0
0.160059 -0.000638509 0.0
0.185222 -0.00219061 0.0
0.180467 -0.00134734 0.0
0.157531 0.00045491 0.0
0.177793 0.00120913 0.0
0 0 0.0
0.100608 2.28592e-05 0.0
0.18741 -0.00306152 0.0
0.186666 -0.00263361 0.0
0.188788 -0.00251643 0.0
0.188087 -0.00274974 0.0
0.189146 -0.00180845 0.0
0.189177 -0.000931139 0.0
0.188859 -3.12393e-05 0.0
0.183575 0.00131384 0.0
0.188228 0.00075748 0.0
0.186361 0.00191257 0.0
0.187346 0.00132779 0.0
0.185247 0.00152784 0.0
0 0 0.0
0.160661 -0.000540813 0.0
0.102776 -0.00012173 0.0
0.185965 -0.00166146 0.0
0.181161 -0.00111128 0.0
0.157978 0.000196245 0.0
0.178543 0.000621018 0.0
0 0 0.0
0.100441 2.99923e-05 0.0
0.187045 -0.00212155 0.0
0.1875 -0.00244349 0.0
0.188306 -0.0021481 0.0
0.188476 -0.00167774 0.0
0.187908 -0.00229845 0.0
0.188426 -0.00108642 0.0
0.188146 -0.000470353 0.0
0.187645 8.78683e-05 0.0
0.188107 -0.00144918 0.0
0.184012 0.000616434 0.0
0.186988 0.000498722 0.0
0.186236 0.000713533 0.0
0.185383 0.00089192 0.0
0 0 0.0
0.161131 -0.000517553 0.0
0.103015 -0.0001885 0.0
0.186368 -0.00148189 0.0
0.181694 -0.00100038 0.0
0.158226 -1.23285e-05 0.0
0.178922 0.000260841 0.0
0 0 0.0
0.100529 -4.90033e-05 0.0
0.187367 -0.00183826 0.0
0.187616 -0.00209313 0.0
0.187991 -0.0019685 0.0
0.187828 -0.00207662 0.0
0.187882 -0.00170026 0.0
0.187903 -0.00098796 0.0
0.187536 -0.000539515 0.0
0.187034 -0.000164407 0.0
0.187719 -0.00137807 0.0
0.184231 0.000111889 0.0
0.186451 8.64456e-05 0.0
0.185987 0.000135215 0.0
0.185487 0.000112262 0.0
0 0 0.0
0.161511 -0.000531252 0.0
0.103262 -0.000179207 0.0
0.186787 -0.00138105 0.0
0.182154 -0.000975597 0.0
0.179183 -9.14742e-05 0.0
0.158313 -0.000170198 0.0
0 0 0.0
0.100617 -0.000124219 0.0
0.187656 -0.00172757 0.0
0.187747 -0.00194069 0.0
0.187634 -0.00182193 0.0
0.187814 -0.00201813 0.0
0.187817 -0.00194229 0.0
0.187424 -0.00103193 0.0
0.187021 -0.00071384 0.0
0.186546 -0.000462861 0.0
0.187416 -0.00161124 0.0
0.18432 -0.00026257 0.0
0.18604 -0.000303792 0.0
0.185463 -0.000346964 0.0
0 0 0.0
0.10338 -0.000199248 0.0
0.161949 -0.00057268 0.0
0.182567 -0.00100179 0.0
0.187934 -0.00174648 0.0
0.187149 -0.00138792 0.0
0.17923 -0.00032706 0.0
0.158247 -0.000259054 0.0
0.100319 -9.16515e-05 0.0
0 0 0.0
0.187843 -0.00207073 0.0
0.187904 -0.00194197 0.0
0.187511 -0.00197373 0.0
0.187718 -0.00203893 0.0
0.186326 -0.000908076 0.0
0.187112 -0.00136542 0.0
0.186738 -0.00112125 0.0
0.187207 -0.00188439 0.0
0.185383 -0.000718066 0.0
0.184261 -0.000614654 0.0
0.185849 -0.000859772 0.0
0 0 0.0
0.103889 -0.000219677 0.0
0.162397 -0.000644119 0.0
0.182951 -0.00107518 0.0
0.188153 -0.00182997 0.0
0.187622 -0.00152803 0.0
0.17913 -0.000517106 0.0
0.158072 -0.000352598 0.0
0.10008 -0.00012592 0.0
0 0 0.0
0.179082 -0.000688967 0.0
0.187896 -0.00218839 0.0
0.188131 -0.00212722 0.0
0.187675 -0.00233728 0.0
0.187423 -0.00216636 0.0
0.186046 -0.00143082 0.0
0.186506 -0.00149791 0.0
0.186875 -0.00170379 0.0
0.187044 -0.00220438 0.0
0.185249 -0.0010401 0.0
0.184155 -0.000866603 0.0
0.185668 -0.00123007 0.0
0 0 0.0
0.104306 -0.000221219 0.0
0.162921 -0.000754798 0.0
0.183395 -0.00123698 0.0
0.188451 -0.00202135 0.0
0.188013 -0.0017295 0.0
0.0997257 -0.000142052 0.0
0.157911 -0.00043915 0.0
0 0 0.0
0.178798 -0.000819382 0.0
0.187999 -0.0024477 0.0
0.188345 -0.00238591 0.0
0.187694 -0.00265716 0.0
0.18734 -0.00248681 0.0
0.185862 -0.00174178 0.0
0.186296 -0.00186944 0.0
0.186914 -0.00258057 0.0
0.186597 -0.00222907 0.0
0.185088 -0.00126246 0.0
0.183946 -0.0011044 0.0
0.185456 -0.00157456 0.0
0 0 0.0
0.104874 -0.000274161 0.0
0.163392 -0.000910203 0.0
0.183922 -0.001479 0.0
0.188851 -0.00239417 0.0
0.18858 -0.00274935 0.0
0.188443 -0.00202052 0.0
0.099589 -0.000185048 0.0
0.157523 -0.000536515 0.0
0 0 0.0
0.178508 -0.000978481 0.0
0.18817 -0.00293151 0.0
0.187724 -0.00298351 0.0
0.187288 -0.00288378 0.0
0.186818 -0.00290648 0.0
0.185671 -0.00205085 0.0
0.186074 -0.00226698 0.0
0.186415 -0.00263889 0.0
0.183718 -0.00134077 0.0
0.184844 -0.00155956 0.0
0.185199 -0.00191917 0.0
0 0 0.0
0.105379 -0.000424731 0.0
0.164156 -0.00110676 0.0
0.184545 -0.0017903 0.0
0.189139 -0.0027044 0.0
0.188836 -0.00319696 0.0
0.188924 -0.00238445 0.0
0.0992759 -0.000255463 0.0
0.157179 -0.00062901 0.0
0 0 0.0
0.183392 -0.0015252 0.0
0.156646 -0.000714829 0.0
0.177993 -0.00117113 0.0
0.188328 -0.00344237 0.0
0.187757 -0.00335074 0.0
0.187221 -0.00360159 0.0
0.186732 -0.00326495 0.0
0.186274 -0.00299603 0.0
0.185414 -0.00244061 0.0
0.185758 -0.00287155 0.0
0.184448 -0.00193212 0.0
0.184951 -0.00223252 0.0
0.188482 -0.00392039 0.0
0 0 0.0
0.106088 -0.000507198 0.0
0.185294 -0.00216374 0.0
0.16499 -0.00138358 0.0
0.189143 -0.00378594 0.0
0.189639 -0.00333961 0.0
0.189438 -0.00285671 0.0
0.0989675 -0.000288897 0.0
0 0 0.0
0.184178 -0.00217827 0.0
0.183013 -0.0017723 0.0
0.177677 -0.00135621 0.0
0.098266 -0.000245629 0.0
0.156285 -0.000822635 0.0
0.187822 -0.00393094 0.0
0.187181 -0.00407018 0.0
0.186588 -0.00381807 0.0
0.186473 -0.0042992 0.0
0.186111 -0.00338567 0.0
0.185103 -0.00287349 0.0
0.185469 -0.00336517 0.0
0.184652 -0.0025489 0.0
0.188612 -0.00448476 0.0
0.106832 -0.000638249 0.0
0 0 0.0
0.185873 -0.00254396 0.0
0.165879 -0.00169179 0.0
0.189463 -0.00449804 0.0
0.189997 -0.00382779 0.0
0.190067 -0.00344143 0.0
0 0 0.0
0.183736 -0.00250902 0.0
0.18239 -0.00208864 0.0
0.177101 -0.00150518 0.0
0.0978911 -0.000279984 0.0
0.155613 -0.000923961 0.0
0.187888 -0.00493365 0.0
0.187139 -0.00459229 0.0
0.186325 -0.00482281 0.0
0.185771 -0.00421532 0.0
0.184751 -0.00334025 0.0
0.185156 -0.00391465 0.0
0.184124 -0.00309317 0.0
0.188822 -0.00531996 0.0
0 0 0.0
0.108076 -0.000753647 0.0
0.186758 -0.00310581 0.0
0.166947 -0.00204076 0.0
0.190751 -0.00416286 0.0
0.189823 -0.0053769 0.0
0.190648 -0.00479493 0.0
0 0 0.0
0 0 0.0
0.183216 -0.00288491 0.0
0.18189 -0.00238885 0.0
0.176548 -0.00169616 0.0
0.154937 -0.00102443 0.0
0.0973728 -0.000354465 0.0
0.187917 -0.00581576 0.0
0.187034 -0.00539079 0.0
0.184854 -0.0043997 0.0
0.186096 -0.00561817 0.0
0.185454 -0.00490934 0.0
0.184324 -0.00386676 0.0
0.183613 -0.00355361 0.0
0.187914 -0.00664552 0.0
0.188982 -0.00632498 0.0
0.109542 -0.000901536 0.0
0.168194 -0.00247417 0.0
0.187819 -0.00381607 0.0
0.191449 -0.00486992 0.0
0.190213 -0.00642666 0.0
0.191085 -0.00557168 0.0
0 0 0.0
0 0 0.0
0.181302 -0.00263267 0.0
0.182434 -0.00338451 0.0
0.154179 -0.00113662 0.0
0.175658 -0.00194504 0.0
0.0967553 -0.000389969 0.0
0.186829 -0.00674322 0.0
0.185778 -0.0065437 0.0
0.183036 -0.00406312 0.0
0.184499 -0.00492625 0.0
0.185171 -0.00551129 0.0
0.183629 -0.00466199 0.0
0.187885 -0.00755141 0.0
0.189226 -0.00799846 0.0
0.190602 -0.00773245 0.0
0.111118 -0.00119699 0.0
0.169947 -0.00307326 0.0
0.189292 -0.00492718 0.0
0.192358 -0.00591373 0.0
0.191896 -0.00709908 0.0
0 0 0.0
0 0 0.0
0.180388 -0.00303513 0.0
0.181716 -0.00384142 0.0
0.153292 -0.00129583 0.0
0.174849 -0.00218836 0.0
0.0960054 -0.000438877 0.0
0.184833 -0.00617003 0.0
0.185377 -0.0075759 0.0
0.186547 -0.00791022 0.0
0.182351 -0.00461547 0.0
0.183985 -0.0056664 0.0
0.182994 -0.00534252 0.0
0.180886 -0.00432919 0.0
0.187682 -0.00948052 0.0
0 0 0.0
0.189266 -0.00957215 0.0
0.192605 -0.00865099 0.0
0.190957 -0.00927643 0.0
0.113213 -0.00152185 0.0
0.19073 -0.00596422 0.0
0.172352 -0.00405449 0.0
0.193623 -0.00766296 0.0
0 0 0.0
0 0 0.0
0 0 0.0
0 0 0.0
0 0 0.0
0.0952368 -0.000479113 0.0
0.174032 -0.00245393 0.0
0.179527 -0.0034077 0.0
0.152474 -0.00142014 0.0
0.184299 -0.00709381 0.0
0.184838 -0.00875701 0.0
0.18619 -0.00923133 0.0
0.182384 -0.00592352 0.0
0.181541 -0.00521969 0.0
0.183068 -0.0068336 0.0
0.180769 -0.00576407 0.0
0.180153 -0.00470717 0.0
0.187341 -0.0111618 0.0
0.189228 -0.0113388 0.0
0 0 0.0
-0.00048255 0.00024408 0.0
0 0 0.0
-0.000436383 0.00455033 0.0
0.191273 -0.0111979 0.0
0.193183 -0.0100624 0.0
0.116092 -0.00202359 0.0
0.192491 -0.00748855 0.0
0.175008 -0.00531704 0.0
0.194924 -0.0096143 0.0
0 0 0.0
0 0 0.0
0 0 0.0
-0.000317841 0.00345431 0.0
-0.00031264 0.00128854 0.0
-0.000974207 0.00102504 0.0
0 0 0.0
0.0944004 -0.000511618 0.0
0.173067 -0.00266987 0.0
0.178534 -0.00379592 0.0
0.151255 -0.00157214 0.0
0.183643 -0.00813896 0.0
0.184144 -0.0100756 0.0
0.185657 -0.0107206 0.0
0.181679 -0.00656183 0.0
0.182421 -0.00758918 0.0
0.179885 -0.00632764 0.0
0.178802 -0.00537411 0.0
0.186844 -0.0130426 0.0
0.188479 -0.0132308 0.0
0.190229 -0.0131863 0.0
0 0 0.0
-0.00130113 0.000339072 0.0
0 0 0.0
0 0 0.0
-0.0014286 0.00618734 0.0
-0.00116737 0.00471599 0.0
0.192007 -0.0130236 0.0
0.19387 -0.0124025 0.0
0.177919 -0.00684809 0.0
0.119599 -0.00274162 0.0
0.194614 -0.0095813 0.0
0.196198 -0.0121142 0.0
0 0 0.0
-0.00076278 0.00281929 0.0
-0.000899537 0.00372263 0.0
-0.00112447 0.00200055 0.0
-0.00192003 0.00102853 0.0
0 0 0.0
0.0934711 -0.000549141 0.0
0.171917 -0.00292551 0.0
0.177388 -0.00418389 0.0
0.15006 -0.00170353 0.0
0.182823 -0.00928222 0.0
0.183256 -0.0115105 0.0
0.184915 -0.0123929 0.0
0.180333 -0.00768516 0.0
0.181675 -0.00837275 0.0
0.178695 -0.00703195 0.0
0.176181 -0.00459636 0.0
0.177562 -0.00593004 0.0
0.186232 -0.0147235 0.0
0.188696 -0.0150692 0.0
0.191406 -0.0154368 0.0
0 0 0.0
-0.00213561 0.000232761 0.0
0 0 0.0
0 0 0.0
0 0 0.0
0 0 0.0
-0.0016964 0.00301163 0.0
-0.000759592 0.00744899 0.0
-0.00177915 0.00764774 0.0
-0.00291987 0.00524413 0.0
-0.00206516 0.00429783 0.0
0 0 0.0
-0.00126811 0.0178513 0.0
0.194462 -0.0161494 0.0
0.197226 -0.0146096 0.0
0 0 0.0
0.124819 -0.00396197 0.0
0.18201 -0.0089642 0.0
0.197514 -0.013189 0.0
0 0 0.0
0 0 0.0
-0.00156815 0.00259951 0.0
-0.00192078 0.00159965 0.0
-0.00249769 0.000530082 0.0
0 0 0.0
0.0924328 -0.000593723 0.0
0.170444 -0.00322634 0.0
0.148728 -0.00183747 0.0
0.175008 -0.00490533 0.0
0.181815 -0.0105194 0.0
0.182428 -0.0126701 0.0
0.183927 -0.0142499 0.0
0.179331 -0.00840362 0.0
0.180578 -0.00941378 0.0
0.177355 -0.00774679 0.0
0.176498 -0.00633729 0.0
0.189663 -0.0171026 0.0
0.185401 -0.0165564 0.0
0.187651 -0.0187103 0.0
0.190901 -0.0195449 0.0
0.194633 -0.0201003 0.0
0 0 0.0
-0.00237899 5.33461e-05 0.0
-0.00137578 0.0153009 0.0
-0.00378619 0.0168167 0.0
-0.00102673 0.00980813 0.0
-0.00214955 0.00179721 0.0
-0.00169443 -0.000347269 0.0
-0.00287286 0.0104156 0.0
-0.00415341 0.00663017 0.0
-0.0037458 0.0020082 0.0