# vtk DataFile Version 3.0
Mesh NS-CD Problem
ASCII
DATASET UNSTRUCTURED_GRID
POINTS 10839 float
-2 0.3 0.0
-2 0.4 0.0
-2 0.35 0.0
-2 0.45 0.0
-2 0.5 0.0
-2 0.55 0.0
-2 0 0.0
-2 0.05 0.0
-2 0.85 0.0
-2 0.9 0.0
-2 0.1 0.0
-2 0.15 0.0
-2 0.25 0.0
-2 0.2 0.0
-1.96653 0.266667 0.0
-1.96524 0.415385 0.0
-1.96485 0.315 0.0
-1.96348 0.363636 0.0
-1.96414 0.464286 0.0
-2 0.6 0.0
-1.96538 0.584615 0.0
-1.96538 0.538462 0.0
-1.94979 0 0.0
-1.96653 0.0666666 0.0
-1.93306 0.0333333 0.0
-2 0.8 0.0
-2 0.75 0.0
-2 0.7 0.0
-2 0.65 0.0
-1.96249 0.7375 0.0
-1.96666 0.833333 0.0
-2 1 0.0
-2 0.95 0.0
-1.96249 0.8875 0.0
-1.96666 0.933333 0.0
-1.96234 0.1125 0.0
-1.96653 0.166667 0.0
-1.93724 0.225 0.0
-1.92971 0.28 0.0
-1.93048 0.380769 0.0
-1.93048 0.423077 0.0
-1.89958 0.3375 0.0
-1.9292 0.484203 0.0
-1.92117 0.530907 0.0
-1.96363 0.636364 0.0
-1.93076 0.576923 0.0
-1.89958 0 0.0
-1.88703 0.0375 0.0
-1.90963 0.08 0.0
-1.86611 0.0666666 0.0
-1.93749 0.775 0.0
-1.93635 0.672727 0.0
-1.92999 0.72 0.0
-1.93332 0.866667 0.0
-1.92856 0.821429 0.0
-1.94999 1 0.0
-1.92499 0.9625 0.0
-1.92499 0.925 0.0
-1.89998 0.9 0.0
-1.89958 0.125 0.0
-1.92827 0.178571 0.0
-1.89958 0.233333 0.0
-1.89045 0.290909 0.0
-1.86096 0.311538 0.0
-1.89241 0.392857 0.0
-1.89334 0.448489 0.0
-1.85655 0.357143 0.0
-1.89614 0.653846 0.0
-1.89427 0.504121 0.0
-1.8952 0.559753 0.0
-1.89614 0.615385 0.0
-1.84937 0 0.0
-1.83264 0.0333333 0.0
-1.85655 0.107143 0.0
-1.81172 0.075 0.0
-1.89998 0.766667 0.0
-1.89089 0.709091 0.0
-1.87498 0.85 0.0
-1.85998 0.79 0.0
-1.88748 0.8125 0.0
-1.89998 1 0.0
-1.88748 0.9625 0.0
-1.86664 0.933333 0.0
-1.85712 0.892857 0.0
-1.87448 0.15 0.0
-1.86611 0.194444 0.0
-1.83264 0.133333 0.0
-1.83264 0.2625 0.0
-1.82068 0.321429 0.0
-1.85664 0.404762 0.0
-1.85674 0.452381 0.0
-1.85683 0.5 0.0
-1.81184 0.375 0.0
-1.85712 0.642857 0.0
-1.85693 0.547619 0.0
-1.85702 0.595238 0.0
-1.79917 0 0.0
-1.78482 0.0357143 0.0
-1.79917 0.116667 0.0
-1.76569 0.0666666 0.0
-1.85452 0.745455 0.0
-1.82689 0.692308 0.0
-1.81815 0.781818 0.0
-1.82497 0.825 0.0
-1.84997 1 0.0
-1.8333 0.958333 0.0
-1.81247 0.8875 0.0
-1.81247 0.925 0.0
-1.81742 0.218182 0.0
-1.82427 0.175 0.0
-1.77634 0.145455 0.0
-1.79144 0.242308 0.0
-1.78482 0.285714 0.0
-1.77469 0.332653 0.0
-1.81215 0.529762 0.0
-1.81194 0.422619 0.0
-1.81203 0.470238 0.0
-1.76714 0.392857 0.0
-1.81234 0.625 0.0
-1.79732 0.571429 0.0
-1.74896 0 0.0
-1.73222 0.0333333 0.0
-1.75398 0.105 0.0
-1.71883 0.07 0.0
-1.79227 0.730769 0.0
-1.78007 0.679121 0.0
-1.75765 0.769231 0.0
-1.78178 0.818182 0.0
-1.78996 0.86 0.0
-1.79996 1 0.0
-1.78568 0.964286 0.0
-1.76663 0.922222 0.0
-1.76569 0.1875 0.0
-1.73222 0.15 0.0
-1.74896 0.25 0.0
-1.73714 0.304762 0.0
-1.76743 0.537202 0.0
-1.72869 0.343878 0.0
-1.76732 0.485119 0.0
-1.76723 0.440476 0.0
-1.72243 0.410714 0.0
-1.76757 0.607143 0.0
-1.69875 0 0.0
-1.68369 0.035 0.0
-1.69875 0.1125 0.0
-1.66528 0.075 0.0
-1.74341 0.708974 0.0
-1.73324 0.665934 0.0
-1.70441 0.74478 0.0
-1.71423 0.785714 0.0
-1.72303 0.826923 0.0
-1.74541 0.854545 0.0
-1.74541 0.890909 0.0
-1.74996 1 0.0
-1.73745 0.9625 0.0
-1.71359 0.927273 0.0
-1.68716 0.153846 0.0
-1.7131 0.214286 0.0
-1.70725 0.275 0.0
-1.69712 0.321939 0.0
-1.72279 0.589286 0.0
-1.72261 0.5 0.0
-1.7227 0.544643 0.0
-1.6827 0.355102 0.0
-1.67773 0.428571 0.0
-1.70763 0.464286 0.0
-1.70369 0.62449 0.0
-1.64854 0 0.0
-1.63181 0.0375 0.0
-1.64137 0.142857 0.0
-1.61764 0.0769231 0.0
-1.69458 0.703846 0.0
-1.67471 0.657437 0.0
-1.66143 0.727637 0.0
-1.67125 0.768571 0.0
-1.67851 0.821429 0.0
-1.68841 0.861538 0.0
-1.70904 0.890909 0.0
-1.69995 1 0.0
-1.68176 0.963636 0.0
-1.67267 0.927273 0.0
-1.65427 0.187143 0.0
-1.66718 0.231429 0.0
-1.66554 0.3 0.0
-1.67802 0.571429 0.0
-1.67792 0.523809 0.0
-1.6367 0.366327 0.0
-1.63682 0.423469 0.0
-1.62568 0.502976 0.0
-1.6629 0.470238 0.0
-1.65254 0.618367 0.0
-1.6059 0.307143 0.0
-1.59833 0 0.0
-1.58288 0.0384615 0.0
-1.60563 0.169643 0.0
-1.58179 0.112271 0.0
-1.56964 0.0714286 0.0
-1.64574 0.690385 0.0
-1.62827 0.751429 0.0
-1.63371 0.791071 0.0
-1.64279 0.857143 0.0
-1.65378 0.896154 0.0
-1.64994 1 0.0
-1.6363 0.963636 0.0
-1.61916 0.930769 0.0
-1.61345 0.209107 0.0
-1.62126 0.248571 0.0
-1.56989 0.196429 0.0
-1.63324 0.553571 0.0
-1.58846 0.535714 0.0
-1.59408 0.361905 0.0
-1.59161 0.402211 0.0
-1.58832 0.464286 0.0
-1.61504 0.598581 0.0
-1.59683 0.64359 0.0
-1.57899 0.274107 0.0
-1.56176 0.322381 0.0
-1.54812 0 0.0
-1.53378 0.0357143 0.0
-1.54593 0.147619 0.0
-1.53385 0.0732143 0.0
-1.53393 0.110714 0.0
-1.58522 0.704286 0.0
-1.58709 0.745 0.0
-1.58896 0.785714 0.0
-1.60695 0.830357 0.0
-1.60707 0.892857 0.0
-1.59993 1 0.0
-1.58454 0.965385 0.0
-1.57135 0.928571 0.0
-1.55209 0.241071 0.0
-1.5291 0.198214 0.0
-1.56936 0.570918 0.0
-1.54369 0.517857 0.0
-1.5464 0.380952 0.0
-1.54564 0.427721 0.0
-1.54488 0.47449 0.0
-1.55026 0.606122 0.0
-1.54222 0.677143 0.0
-1.52943 0.282857 0.0
-1.52143 0.33619 0.0
-1.49792 0 0.0
-1.49802 0.05 0.0
-1.49822 0.15 0.0
-1.49312 0.1 0.0
-1.5423 0.717143 0.0
-1.54419 0.767857 0.0
-1.54727 0.819048 0.0
-1.57122 0.861905 0.0
-1.53553 0.914286 0.0
-1.54992 1 0.0
-1.53563 0.964286 0.0
-1.49842 0.25 0.0
-1.48831 0.2 0.0
-1.5214 0.558929 0.0
-1.49891 0.5 0.0
-1.49871 0.4 0.0
-1.47631 0.45 0.0
-1.49911 0.6 0.0
-1.49921 0.65 0.0
-1.49931 0.7 0.0
-1.48111 0.35 0.0
-1.48351 0.3 0.0
-1.44771 0 0.0
-1.44782 0.05 0.0
-1.44804 0.15 0.0
-1.44793 0.1 0.0
-1.49941 0.75 0.0
-1.49951 0.8 0.0
-1.49981 0.95 0.0
-1.49961 0.85 0.0
-1.49971 0.9 0.0
-1.49991 1 0.0
-1.44826 0.25 0.0
-1.43815 0.2 0.0
-1.47151 0.55 0.0
-1.44881 0.5 0.0
-1.44859 0.4 0.0
-1.42619 0.45 0.0
-1.44913 0.65 0.0
-1.44902 0.6 0.0
-1.44935 0.75 0.0
-1.44924 0.7 0.0
-1.43972 0.35 0.0
-1.43336 0.3 0.0
-1.3975 0 0.0
-1.39762 0.05 0.0
-1.39786 0.15 0.0
-1.39274 0.1 0.0
-1.44957 0.85 0.0
-1.44946 0.8 0.0
-1.4523 0.95 0.0
-1.44968 0.9 0.0
-1.4499 1 0.0
-1.3981 0.25 0.0
-1.38798 0.2 0.0
-1.42141 0.55 0.0
-1.3987 0.5 0.0
-1.39834 0.35 0.0
-1.37845 0.4 0.0
-1.37607 0.45 0.0
-1.40784 0.65 0.0
-1.39894 0.6 0.0
-1.41185 0.75 0.0
-1.39918 0.7 0.0
-1.38322 0.3 0.0
-1.34729 0 0.0
-1.34492 0.05 0.0
-1.34018 0.15 0.0
-1.34255 0.1 0.0
-1.40707 0.85 0.0
-1.39941 0.8 0.0
-1.39977 0.95 0.0
-1.39965 0.9 0.0
-1.39989 1 0.0
-1.33781 0.2 0.0
-1.33544 0.25 0.0
-1.37131 0.55 0.0
-1.34859 0.5 0.0
-1.33833 0.4 0.0
-1.3307 0.35 0.0
-1.32595 0.45 0.0
-1.34885 0.6 0.0
-1.36655 0.65 0.0
-1.36179 0.75 0.0
-1.34911 0.7 0.0
-1.33307 0.3 0.0
-1.29708 0 0.0
-1.29722 0.05 0.0
-1.2975 0.15 0.0
-1.29236 0.1 0.0
-1.35703 0.85 0.0
-1.34937 0.8 0.0
-1.34988 1 0.0
-1.34962 0.9 0.0
-1.35226 0.95 0.0
-1.28528 0.25 0.0
-1.28764 0.2 0.0
-1.28931 0.35 0.0
-1.32121 0.55 0.0
-1.29848 0.5 0.0
-1.28709 0.45 0.0
-1.2982 0.4 0.0
-1.29876 0.6 0.0
-1.31647 0.65 0.0
-1.29918 0.75 0.0
-1.29904 0.7 0.0
-1.28292 0.3 0.0
-1.24687 0 0.0
-1.24702 0.05 0.0
-1.24717 0.1 0.0
-1.24732 0.15 0.0
-1.29946 0.85 0.0
-1.29932 0.8 0.0
-1.29987 1 0.0
-1.29974 0.95 0.0
-1.30462 0.9 0.0
-1.24762 0.25 0.0
-1.23747 0.2 0.0
-1.24792 0.35 0.0
-1.22807 0.4 0.0
-1.27111 0.55 0.0
-1.24837 0.5 0.0
-1.24822 0.45 0.0
-1.24867 0.6 0.0
-1.26639 0.65 0.0
-1.26167 0.75 0.0
-1.24897 0.7 0.0
-1.23277 0.3 0.0
-1.19667 0 0.0
-1.19683 0.05 0.0
-1.18964 0.15 0.0
-1.19198 0.1 0.0
-1.25695 0.85 0.0
-1.24927 0.8 0.0
-1.25223 0.95 0.0
-1.24987 1 0.0
-1.24957 0.9 0.0
-1.1873 0.2 0.0
-1.18496 0.25 0.0
-1.18028 0.35 0.0
-1.17794 0.4 0.0
-1.1981 0.45 0.0
-1.19842 0.55 0.0
-1.19826 0.5 0.0
-1.19858 0.6 0.0
-1.19874 0.65 0.0
-1.19906 0.75 0.0
-1.1989 0.7 0.0
-1.18262 0.3 0.0
-1.14646 0 0.0
-1.14663 0.05 0.0
-1.1418 0.1 0.0
-1.13713 0.2 0.0
-1.14697 0.15 0.0
-1.20691 0.85 0.0
-1.20926 0.8 0.0
-1.20221 0.95 0.0
-1.19986 1 0.0
-1.20456 0.9 0.0
-1.13997 0.3 0.0
-1.14731 0.25 0.0
-1.13781 0.4 0.0
-1.13014 0.35 0.0
-1.12548 0.45 0.0
-1.14815 0.5 0.0
-1.15962 0.55 0.0
-1.14849 0.6 0.0
-1.15745 0.65 0.0
-1.16155 0.75 0.0
-1.14917 0.8 0.0
-1.14883 0.7 0.0
-1.09625 0 0.0
-1.09661 0.1 0.0
-1.09393 0.05 0.0
-1.09697 0.2 0.0
-1.08929 0.15 0.0
-1.15687 0.85 0.0
-1.14985 1 0.0
-1.15219 0.95 0.0
-1.14951 0.9 0.0
-1.09733 0.3 0.0
-1.08465 0.25 0.0
-1.09769 0.4 0.0
-1.08 0.35 0.0
-1.08661 0.45 0.0
-1.09804 0.5 0.0
-1.12082 0.55 0.0
-1.10916 0.8 0.0
-1.10629 0.7 0.0
-1.0984 0.6 0.0
-1.11616 0.65 0.0
-1.11149 0.75 0.0
-1.04604 0 0.0
-1.04623 0.05 0.0
-1.04642 0.1 0.0
-1.0468 0.2 0.0
-1.03911 0.15 0.0
-1.09948 0.9 0.0
-1.0993 0.85 0.0
-1.09984 1 0.0
-1.09966 0.95 0.0
-1.04718 0.3 0.0
-1.03449 0.25 0.0
-1.04756 0.4 0.0
-1.02986 0.35 0.0
-1.04775 0.45 0.0
-1.04794 0.5 0.0
-1.04813 0.55 0.0
-1.05911 0.8 0.0
-1.04831 0.6 0.0
-1.06376 0.7 0.0
-1.0485 0.65 0.0
-1.04888 0.75 0.0
-0.995833 0 0.0
-0.991231 0.1 0.0
-0.996033 0.05 0.0
-0.986629 0.2 0.0
-0.98893 0.15 0.0
-1.05447 0.9 0.0
-1.04926 0.85 0.0
-1.04983 1 0.0
-1.04964 0.95 0.0
-0.984328 0.25 0.0
-0.99703 0.3 0.0
-0.997429 0.4 0.0
-0.997628 0.45 0.0
-0.979726 0.35 0.0
-0.997827 0.5 0.0
-0.998027 0.55 0.0
-0.998226 0.6 0.0
-0.961416 0.475 0.0
-1.00907 0.8 0.0
-0.998426 0.65 0.0
-0.998625 0.7 0.0
-1.01138 0.75 0.0
-0.945625 0 0.0
-0.946044 0.1 0.0
-0.943334 0.05 0.0
-0.946463 0.2 0.0
-0.938752 0.15 0.0
-1.00444 0.9 0.0
-1.00675 0.85 0.0
-0.999821 1 0.0
-1.00213 0.95 0.0
-0.93417 0.25 0.0
-0.946881 0.3 0.0
-0.9473 0.4 0.0
-0.929588 0.35 0.0
-0.925005 0.45 0.0
-0.960371 0.525 0.0
-0.959325 0.575 0.0
-0.958279 0.625 0.0
-0.922714 0.5 0.0
-0.959017 0.8 0.0
-0.957233 0.675 0.0
-0.952999 0.7125 0.0
-0.948766 0.75 0.0
-0.895417 0 0.0
-0.895855 0.1 0.0
-0.893136 0.05 0.0
-0.896294 0.2 0.0
-0.888573 0.15 0.0
-0.949184 0.85 0.0
-0.954415 0.9 0.0
-0.949812 1 0.0
-0.949603 0.95 0.0
-0.884011 0.25 0.0
-0.896733 0.3 0.0
-0.874887 0.45 0.0
-0.879449 0.35 0.0
-0.897171 0.4 0.0
-0.920423 0.55 0.0
-0.918132 0.6 0.0
-0.915841 0.65 0.0
-0.872606 0.5 0.0
-0.908968 0.8 0.0
-0.91355 0.7 0.0
-0.898707 0.75 0.0
-0.845208 0 0.0
-0.845438 0.05 0.0
-0.845667 0.1 0.0
-0.845896 0.15 0.0
-0.833853 0.25 0.0
-0.846126 0.2 0.0
-0.899146 0.85 0.0
-0.904386 0.9 0.0
-0.899584 0.95 0.0
-0.899804 1 0.0
-0.838062 0.35 0.0
[...]
POINT_DATA 10839
VECTORS Velocity float
0.21 0 0.0
0.24 0 0.0
0.2275 0 0.0
0.2475 0 0.0
0.25 0 0.0
0.2475 0 0.0
0 0 0.0
0.0475 0 0.0
0.1275 0 0.0
0.09 0 0.0
0.09 0 0.0
0.1275 0 0.0
0.1875 0 0.0
0.16 0 0.0
0.195557 -2.43838e-05 0.0
0.242841 -3.32514e-05 0.0
0.215776 -2.90184e-05 0.0
0.231406 -3.27093e-05 0.0
0.248725 -3.54017e-05 0.0
0.24 0 0.0
0.24284 -3.31771e-05 0.0
0.24852 -3.40934e-05 0.0
0 0 0.0
0.0622239 -4.25733e-06 0.0
0.032227 -2.81463e-06 0.0
0.16 0 0.0
0.1875 0 0.0
0.21 0 0.0
0.2275 0 0.0
0.193592 -2.73705e-05 0.0
0.138887 -1.52059e-05 0.0
0 0 0.0
0.0475 0 0.0
0.0998415 -1.05672e-05 0.0
0.0622205 -4.30512e-06 0.0
0.0998462 -1.10412e-05 0.0
0.138891 -1.53408e-05 0.0
0.17438 -3.84342e-05 0.0
0.201606 -5.26367e-05 0.0
0.235787 -6.42543e-05 0.0
0.244085 -6.72307e-05 0.0
0.223602 -8.61352e-05 0.0
0.249751 -7.024e-05 0.0
0.249044 -7.82676e-05 0.0
0.231404 -3.32401e-05 0.0
0.244081 -6.64358e-05 0.0
0 0 0.0
0.0361083 -5.44463e-06 0.0
0.0736129 -1.52144e-05 0.0
0.0622495 -1.66746e-05 0.0
0.17437 -3.78701e-05 0.0
0.220162 -5.26132e-05 0.0
0.201594 -5.27157e-05 0.0
0.115548 -2.27192e-05 0.0
0.146676 -3.51923e-05 0.0
0 0 0.0
0.0360873 -3.66801e-06 0.0
0.0693659 -1.1896e-05 0.0
0.0899832 -2.36048e-05 0.0
0.109391 -3.19249e-05 0.0
0.146692 -3.45107e-05 0.0
0.178902 -6.44464e-05 0.0
0.206293 -8.42577e-05 0.0
0.214501 -0.000113544 0.0
0.238527 -0.000100717 0.0
0.24735 -0.000104876 0.0
0.229607 -0.000128202 0.0
0.226323 -9.05062e-05 0.0
0.249983 -0.000105394 0.0
0.246426 -0.000102538 0.0
0.23668 -9.65454e-05 0.0
0 0 0.0
0.032251 -6.15688e-06 0.0
0.0956971 -3.62635e-05 0.0
0.0694301 -2.73371e-05 0.0
0.178876 -6.34673e-05 0.0
0.206269 -8.48962e-05 0.0
0.127476 -4.89463e-05 0.0
0.165873 -8.03278e-05 0.0
0.152325 -5.75249e-05 0.0
0 0 0.0
0.0360794 -5.27346e-06 0.0
0.0621954 -1.64984e-05 0.0
0.0956295 -3.69508e-05 0.0
0.127525 -4.94175e-05 0.0
0.156661 -7.17825e-05 0.0
0.115601 -5.6747e-05 0.0
0.193627 -0.000118384 0.0
0.218142 -0.000149803 0.0
0.24094 -0.000136596 0.0
0.247738 -0.000141661 0.0
0.25 -0.000143208 0.0
0.234398 -0.000173421 0.0
0.229576 -0.000126435 0.0
0.247727 -0.000141351 0.0
0.240919 -0.000136359 0.0
0 0 0.0
0.0344879 -8.52994e-06 0.0
0.103122 -5.57678e-05 0.0
0.0623042 -2.77004e-05 0.0
0.189727 -0.000100607 0.0
0.212988 -0.000140535 0.0
0.170533 -0.000108967 0.0
0.144329 -8.08795e-05 0.0
0 0 0.0
0.0398976 -9.08188e-06 0.0
0.0997855 -5.06941e-05 0.0
0.0693204 -2.68898e-05 0.0
0.170625 -0.000109086 0.0
0.144422 -8.26258e-05 0.0
0.124378 -8.38072e-05 0.0
0.18365 -0.000137911 0.0
0.204132 -0.000165116 0.0
0.222039 -0.000194413 0.0
0.249109 -0.000188039 0.0
0.244027 -0.000183025 0.0
0.24912 -0.000188045 0.0
0.238551 -0.00022082 0.0
0.234352 -0.000172409 0.0
0.244882 -0.000198234 0.0
0 0 0.0
0.0322928 -9.03782e-06 0.0
0.0940755 -5.8641e-05 0.0
0.0652189 -3.50587e-05 0.0
0.196695 -0.000150813 0.0
0.217871 -0.000185296 0.0
0.177437 -0.000153098 0.0
0.148689 -0.000106821 0.0
0.120328 -7.4782e-05 0.0
0 0 0.0
0.0343901 -8.61404e-06 0.0
0.0716431 -3.51689e-05 0.0
0.152425 -0.000119808 0.0
0.127616 -0.0001041 0.0
0.187579 -0.000171067 0.0
0.211952 -0.000213088 0.0
0.248605 -0.000233463 0.0
0.225686 -0.000241428 0.0
0.249783 -0.000235153 0.0
0.246474 -0.00023119 0.0
0.242065 -0.000270592 0.0
0.23849 -0.00022021 0.0
0 0 0.0
0.0338755 -1.13338e-05 0.0
0.0999949 -7.83622e-05 0.0
0.0695472 -4.67048e-05 0.0
0.206259 -0.000199513 0.0
0.222404 -0.000232578 0.0
0.189974 -0.000207358 0.0
0.168252 -0.000167466 0.0
0.143002 -0.000128459 0.0
0.124192 -9.47816e-05 0.0
0.0970826 -6.36665e-05 0.0
0 0 0.0
0.0360199 -1.09765e-05 0.0
0.0673133 -3.77053e-05 0.0
0.130336 -0.000125845 0.0
0.168484 -0.000168258 0.0
0.199474 -0.000219506 0.0
0.218379 -0.000257619 0.0
0.241992 -0.000271265 0.0
0.25 -0.000283154 0.0
0.247988 -0.000279856 0.0
0.229082 -0.000290702 0.0
0.244938 -0.000322278 0.0
0.248741 -0.000297142 0.0
0.234444 -0.000277957 0.0
0 0 0.0
0.0362343 -1.46199e-05 0.0
0.122661 -0.000128964 0.0
0.0712321 -5.52688e-05 0.0
0.208348 -0.000244074 0.0
0.225125 -0.000290497 0.0
0.198046 -0.000253446 0.0
0.177723 -0.000209875 0.0
0.146524 -0.000154768 0.0
0.11913 -0.000108125 0.0
0.0970493 -7.22452e-05 0.0
0 0 0.0
0.0349374 -1.22956e-05 0.0
0.0672756 -4.2469e-05 0.0
0.152303 -0.000175941 0.0
0.178019 -0.000214811 0.0
0.210117 -0.000271744 0.0
0.244858 -0.000322204 0.0
0.24942 -0.000330995 0.0
0.232227 -0.000342016 0.0
0.244198 -0.000366702 0.0
0.249988 -0.000391414 0.0
0.249132 -0.000347791 0.0
0.235912 -0.000332945 0.0
0.212965 -0.000331886 0.0
0 0 0.0
0.0371636 -1.72307e-05 0.0
0.141113 -0.000179536 0.0
0.0999614 -0.000108587 0.0
0.0666032 -5.38801e-05 0.0
0.213627 -0.00029702 0.0
0.186605 -0.000258606 0.0
0.165082 -0.000210463 0.0
0.122238 -0.000129703 0.0
0.0928633 -7.92719e-05 0.0
0 0 0.0
0.0349074 -1.37345e-05 0.0
0.0642238 -4.51185e-05 0.0
0.1656 -0.000224955 0.0
0.18697 -0.00026436 0.0
0.158127 -0.00023539 0.0
0.247091 -0.000376595 0.0
0.248691 -0.000432871 0.0
0.231053 -0.000384084 0.0
0.240527 -0.000409894 0.0
0.248758 -0.000432496 0.0
0.240202 -0.000383072 0.0
0.229255 -0.000376393 0.0
0.199184 -0.000324926 0.0
0.218636 -0.000388325 0.0
0 0 0.0
0.0346517 -1.69108e-05 0.0
0.126174 -0.000174524 0.0
0.0681824 -6.08962e-05 0.0
0.0988244 -0.000118272 0.0
0.20808 -0.00033977 0.0
0.189757 -0.000296268 0.0
0.168122 -0.000245943 0.0
0.140616 -0.000178214 0.0
0.0954054 -9.43248e-05 0.0
0 0 0.0
0.033251 -1.40617e-05 0.0
0.0660523 -5.37368e-05 0.0
0.183227 -0.000307031 0.0
0.159267 -0.00026344 0.0
0.244897 -0.000446301 0.0
0.24966 -0.000489876 0.0
0.235963 -0.000449418 0.0
0.244859 -0.000475016 0.0
0.249378 -0.000488691 0.0
0.238619 -0.000451903 0.0
0.218418 -0.00040849 0.0
0.203108 -0.000379061 0.0
0.223373 -0.00044395 0.0
0 0 0.0
0.0478099 -3.37561e-05 0.0
0.127926 -0.000198987 0.0
0.0904295 -0.000111077 0.0
0.202605 -0.000365226 0.0
0.177963 -0.000300454 0.0
0.147883 -0.000225568 0.0
0.118715 -0.000147967 0.0
0.0780224 -7.922e-05 0.0
0 0 0.0
0.0342286 -1.65726e-05 0.0
0.187836 -0.000363481 0.0
0.160406 -0.000293119 0.0
0.246451 -0.000509927 0.0
0.25 -0.000549369 0.0
0.240141 -0.000518776 0.0
0.247578 -0.000571861 0.0
0.239858 -0.000518382 0.0
0.227289 -0.000480005 0.0
0.209725 -0.000427112 0.0
0.227727 -0.000503759 0.0
0.210294 -0.000444984 0.0
0 0 0.0
0.0478742 -3.76602e-05 0.0
0.128022 -0.000222141 0.0
0.0905127 -0.00012214 0.0
0.187165 -0.000361641 0.0
0.159613 -0.000283587 0.0
0.047194 -3.31111e-05 0.0
0.127078 -0.000196315 0.0
0.0895834 -0.00010879 0.0
0 0 0.0
0.187913 -0.000408422 0.0
0.160497 -0.000328053 0.0
0.247419 -0.000578383 0.0
0.249999 -0.000618862 0.0
0.240174 -0.000584774 0.0
0.247595 -0.000642798 0.0
0.227242 -0.000540357 0.0
0.239825 -0.000583627 0.0
0.187089 -0.000406214 0.0
0.209662 -0.000480481 0.0
0.227768 -0.00055294 0.0
0.21036 -0.000500133 0.0
0 0 0.0
0.0479449 -4.12909e-05 0.0
0.12813 -0.000247 0.0
0.0906255 -0.000136987 0.0
0.126981 -0.000220002 0.0
0.159525 -0.000318172 0.0
0.0471339 -3.67222e-05 0.0
0.0894924 -0.00012092 0.0
0 0 0.0
0.188 -0.00045608 0.0
0.1606 -0.000365699 0.0
0.247401 -0.000649061 0.0
0.249999 -0.000693234 0.0
0.227813 -0.000606497 0.0
0.240226 -0.000683798 0.0
0.247614 -0.000719365 0.0
0.227196 -0.000591503 0.0
0.239788 -0.00065369 0.0
0.187024 -0.000440493 0.0
0.20959 -0.000537471 0.0
0.210434 -0.000559054 0.0
0 0 0.0
0.048028 -4.59217e-05 0.0
0.128269 -0.000277861 0.0
0.0907405 -0.000151331 0.0
0.126892 -0.000240304 0.0
0.159425 -0.000354276 0.0
0.047061 -4.07941e-05 0.0
0.0893917 -0.000133497 0.0
0 0 0.0
0.160715 -0.0004057 0.0
0.188124 -0.000519972 0.0
0.247381 -0.000724855 0.0
0.249998 -0.000773119 0.0
0.240261 -0.000746739 0.0
0.227898 -0.000701472 0.0
0.247636 -0.000800613 0.0
0.239746 -0.000728364 0.0
0.227147 -0.000647366 0.0
0.18693 -0.000489938 0.0
0.20951 -0.000598064 0.0
0.210517 -0.000622856 0.0
0 0 0.0
0.0481117 -5.06948e-05 0.0
0.128384 -0.000303032 0.0
0.0908673 -0.000167 0.0
0.126775 -0.000265941 0.0
0.159313 -0.000393324 0.0
0 0 0.0
0.0892793 -0.00014767 0.0
0.0469873 -4.48309e-05 0.0
0.188236 -0.000578501 0.0
0.160843 -0.000449756 0.0
0.227956 -0.000764988 0.0
0.247358 -0.000807115 0.0
0.249997 -0.000859767 0.0
0.247654 -0.000869258 0.0
0.240298 -0.000812619 0.0
0.239699 -0.000809362 0.0
0.227081 -0.000719771 0.0
0.186796 -0.000556683 0.0
0.20942 -0.000664412 0.0
0.21061 -0.000691113 0.0
0 0 0.0
0.0482068 -5.59022e-05 0.0
0.0909931 -0.000182012 0.0
0.128532 -0.000334376 0.0
0.126624 -0.000297936 0.0
0.159189 -0.000435346 0.0
0 0 0.0
0.0468991 -4.93174e-05 0.0
0.0891691 -0.000160742 0.0
0.18833 -0.000624123 0.0
0.160986 -0.000497755 0.0
0.228019 -0.000833301 0.0
0.240371 -0.000939153 0.0
0.247333 -0.000896418 0.0
0.249997 -0.000953246 0.0
0.247675 -0.000941591 0.0
0.239646 -0.000897101 0.0
0.227007 -0.000798401 0.0
0.186705 -0.000600901 0.0
0.209319 -0.000735157 0.0
0.210714 -0.000766141 0.0
0 0 0.0
0.0483127 -6.13894e-05 0.0
0.128723 -0.000375345 0.0
0.0911631 -0.000203326 0.0
0.1265 -0.000323942 0.0
0.159051 -0.000480909 0.0
0.0468109 -5.35843e-05 0.0
0 0 0.0
0.0890207 -0.000178459 0.0
0.161144 -0.000550154 0.0
0.188501 -0.00070697 0.0
0.228137 -0.00095564 0.0
0.240431 -0.00104162 0.0
0.247702 -0.00104364 0.0
0.24729 -0.00103713 0.0
0.249996 -0.00105692 0.0
0.239588 -0.00099473 0.0
0.226893 -0.000913312 0.0
0.18654 -0.00067971 0.0
0.209208 -0.000813545 0.0
0.210829 -0.000847551 0.0
0 0 0.0
0.048428 -6.72874e-05 0.0
0.0913336 -0.000222936 0.0
0.161319 -0.0006058 0.0
0.128879 -0.000407085 0.0
0.126341 -0.00035686 0.0
0.158929 -0.000520233 0.0
0.0467083 -5.92392e-05 0.0
0 0 0.0
0.0888847 -0.000194768 0.0
0.210936 -0.00092329 0.0
0.188617 -0.000763542 0.0
0.240483 -0.00112836 0.0
0.228234 -0.0010599 0.0
0.247748 -0.0012055 0.0
0.249994 -0.00116852 0.0
0.247264 -0.00112113 0.0
0.239522 -0.00109903 0.0
0.226814 -0.000991266 0.0
0.186428 -0.000731847 0.0
0.158728 -0.000585282 0.0
0.209084 -0.000897456 0.0
0 0 0.0
0.0915045 -0.00024359 0.0
0.0485639 -7.47237e-05 0.0
0.161474 -0.000657029 0.0
0.129112 -0.000456896 0.0
0.126165 -0.000393457 0.0
0 0 0.0
0.0465957 -6.52075e-05 0.0
0.0887036 -0.000216489 0.0
0.211055 -0.00100399 0.0
0.188827 -0.000866704 0.0
0.240539 -0.00122195 0.0
0.228343 -0.00117307 0.0
0.247774 -0.00130552 0.0
0.249991 -0.00129195 0.0
0.247236 -0.00121359 0.0
0.158579 -0.000630329 0.0
0.208968 -0.000974811 0.0
0.239448 -0.00121198 0.0
0.226729 -0.00107616 0.0
0.186268 -0.000807438 0.0
0 0 0.0
0.0486974 -8.13634e-05 0.0
0.0917089 -0.000267441 0.0
0.161686 -0.000724484 0.0
0.129339 -0.000504006 0.0
0.0885201 -0.000237809 0.0
0.12594 -0.000439745 0.0
0 0 0.0
0.046466 -7.22978e-05 0.0
0.211207 -0.00110987 0.0
0.18902 -0.000958819 0.0
0.240616 -0.00135071 0.0
0.228462 -0.00129822 0.0
0.247804 -0.0014127 0.0
0.249989 -0.0014284 0.0
0.247175 -0.00139772 0.0
0.158379 -0.000693853 0.0
0.239368 -0.00133799 0.0
0.208843 -0.00105591 0.0
0.226574 -0.00122899 0.0
0.186043 -0.000914072 0.0
0 0 0.0
0.09196 -0.000297165 0.0
0.048851 -8.91832e-05 0.0
0.161969 -0.000815397 0.0
0.12959 -0.000555951 0.0
0.08834 -0.000259788 0.0
0.125723 -0.000485736 0.0
0 0 0.0
0.0463279 -7.99653e-05 0.0
0.189231 -0.00106206 0.0
0.211376 -0.00122841 0.0
0.240701 -0.0014954 0.0
0.247844 -0.00155866 0.0
0.228594 -0.00143618 0.0
0.249984 -0.00157481 0.0
0.247128 -0.00154553 0.0
0.239278 -0.00147306 0.0
0.249552 -0.00169125 0.0
0.158156 -0.000763626 0.0
0.226443 -0.00135496 0.0
0.208628 -0.00119653 0.0
0.185893 -0.000982389 0.0
0 0 0.0
0.0921902 -0.000324478 0.0
0.0490314 -9.89393e-05 0.0
0.162182 -0.000884872 0.0
0.129868 -0.000613744 0.0
0.0881209 -0.000286614 0.0
0.125521 -0.000527959 0.0
0 0 0.0
0.0461846 -8.81436e-05 0.0
0.189466 -0.00117614 0.0
0.211563 -0.00136066 0.0
0.240789 -0.00165203 0.0
0.22874 -0.00159222 0.0
0.247906 -0.00180349 0.0
0.249156 -0.00168704 0.0
0.243765 -0.00163394 0.0
0.233385 -0.00153257 0.0
0.249973 -0.00182873 0.0
0.157913 -0.00083996 0.0
0.218022 -0.00138753 0.0
0.20322 -0.00125589 0.0
0.185622 -0.0011048 0.0
0 0 0.0
0.0924668 -0.000357735 0.0
0.0492178 -0.000108068 0.0
0.162471 -0.000980804 0.0
0.130178 -0.000679576 0.0
0.125223 -0.000590392 0.0
0.0878788 -0.000316847 0.0
0 0 0.0
0.0460104 -9.74093e-05 0.0
0.189728 -0.00130533 0.0
0.21177 -0.00150888 0.0
0.247948 -0.0019916 0.0
0.2289 -0.00176474 0.0
0.240893 -0.00182981 0.0
0.247039 -0.00180044 0.0
0.239111 -0.00171908 0.0
0.226195 -0.00158718 0.0
0.249958 -0.00201824 0.0
0.157644 -0.000924441 0.0
0.208302 -0.00140633 0.0
0.185377 -0.00121429 0.0
0 0 0.0
0.0494143 -0.000118259 0.0
0.0927746 -0.000396621 0.0
0.130469 -0.00074204 0.0
0.190017 -0.00144914 0.0
0.162795 -0.00108958 0.0
0.124935 -0.000650003 0.0
0.087612 -0.000350271 0.0
0.0458239 -0.00010802 0.0
0 0 0.0
0.229043 -0.00192412 0.0
0.212 -0.00167793 0.0
0.247986 -0.00215541 0.0
0.240999 -0.00203004 0.0
0.226023 -0.00174276 0.0
0.246968 -0.00198323 0.0
0.238986 -0.00189095 0.0
0.249943 -0.00222739 0.0
0.185114 -0.00133005 0.0
0.157292 -0.00103111 0.0
0.208013 -0.00158591 0.0
0 0 0.0
0.0496425 -0.000131803 0.0
0.0931552 -0.000445723 0.0
0.130846 -0.000825356 0.0
0.190255 -0.0015754 0.0
0.163231 -0.00124632 0.0
0.124623 -0.000713249 0.0
0.0872907 -0.000389748 0.0
0.0456201 -0.000119104 0.0
0 0 0.0
0.124279 -0.000782293 0.0
0.229196 -0.00209299 0.0
0.212332 -0.00193451 0.0
0.241163 -0.00235064 0.0
0.248023 -0.00232942 0.0
0.22576 -0.00197281 0.0
0.23885 -0.00207639 0.0
0.24689 -0.00218581 0.0
0.249915 -0.00245862 0.0
0.184824 -0.0014541 0.0
0.156966 -0.00113128 0.0
0.207764 -0.00173927 0.0
0 0 0.0
0.0498966 -0.000146702 0.0
0.0935453 -0.000499398 0.0
0.13127 -0.000925009 0.0
0.190605 -0.00175786 0.0
0.163646 -0.00139842 0.0
0.0453908 -0.000132818 0.0
0.086964 -0.00042964 0.0
0 0 0.0
0.123965 -0.000840277 0.0
0.229398 -0.00233416 0.0
0.212621 -0.00216223 0.0
0.241288 -0.00261085 0.0
0.248066 -0.00258247 0.0
0.225574 -0.00212803 0.0
0.238696 -0.0022783 0.0
0.249881 -0.00271537 0.0
0.24675 -0.00251278 0.0
0.184586 -0.00154913 0.0
0.156612 -0.00123307 0.0
0.20749 -0.00189766 0.0
0 0 0.0
0.0501793 -0.000164402 0.0
0.0939822 -0.00056172 0.0
0.131818 -0.00105948 0.0
0.191091 -0.00202821 0.0
0.212934 -0.00242485 0.0
0.164104 -0.00157732 0.0
0.0451565 -0.000145085 0.0
0.0866118 -0.000469749 0.0
0 0 0.0
0.123567 -0.000911359 0.0
0.229693 -0.00270097 0.0
0.241392 -0.00284769 0.0
0.248107 -0.00286344 0.0
0.249843 -0.00292832 0.0
0.225376 -0.00228721 0.0
0.238512 -0.00250212 0.0
0.24663 -0.00276421 0.0
0.156226 -0.00133827 0.0
0.184245 -0.00168401 0.0
0.207184 -0.00206541 0.0
0 0 0.0
0.0505217 -0.000187771 0.0
0.094482 -0.000640821 0.0
0.132366 -0.00120598 0.0
0.19142 -0.00222239 0.0
0.213274 -0.00271921 0.0
0.16462 -0.0017864 0.0
0.044886 -0.000158026 0.0
0.0862288 -0.000510235 0.0
0 0 0.0
0.155896 -0.00141556 0.0
0.0858196 -0.000547251 0.0
0.123071 -0.000990315 0.0
0.229932 -0.00303668 0.0
0.241494 -0.00309585 0.0
0.248151 -0.00332808 0.0
0.249801 -0.00315169 0.0
0.246524 -0.00297806 0.0
0.225105 -0.00249233 0.0
0.238221 -0.00284185 0.0
0.183771 -0.00185449 0.0
0.206898 -0.00221939 0.0
0.230142 -0.00332985 0.0
0 0 0.0
0.0508928 -0.000215107 0.0
0.132986 -0.00138194 0.0
0.095051 -0.000737527 0.0
0.213649 -0.00306913 0.0
0.192015 -0.00259216 0.0
0.165194 -0.00203299 0.0
0.044581 -0.000170401 0.0
0 0 0.0
0.183454 -0.00196226 0.0
0.155447 -0.00151753 0.0
0.122601 -0.00105854 0.0
0.0442618 -0.000185287 0.0
0.0853789 -0.000584427 0.0
0.24163 -0.00345464 0.0
0.248164 -0.00361271 0.0
0.249718 -0.00348176 0.0
0.249643 -0.00375676 0.0
0.246395 -0.00320308 0.0
0.224793 -0.00271453 0.0
0.237959 -0.00310887 0.0
0.206582 -0.00236707 0.0
0.230349 -0.00365977 0.0
0.051302 -0.000248012 0.0
0 0 0.0
0.133576 -0.00155495 0.0
0.0957012 -0.000851139 0.0
0.214049 -0.003467 0.0
0.192413 -0.00285573 0.0
0.165839 -0.00232612 0.0
0 0 0.0
0.183002 -0.00209586 0.0
0.154861 -0.00162901 0.0
0.122182 -0.00110316 0.0
0.0439459 -0.000195771 0.0
0.0849156 -0.000616876 0.0
0.241805 -0.00403768 0.0
0.24817 -0.00391343 0.0
0.249543 -0.00404518 0.0
0.246111 -0.00366114 0.0
0.224445 -0.00294338 0.0
0.237669 -0.00339279 0.0
0.20604 -0.00261016 0.0
0.230627 -0.00411974 0.0
0 0 0.0
0.0517958 -0.000290808 0.0
0.134356 -0.00179792 0.0
0.0963798 -0.000977025 0.0
0.166557 -0.00266597 0.0
0.21448 -0.00393021 0.0
0.193138 -0.00335634 0.0
0 0 0.0
0 0 0.0
0.182493 -0.00223172 0.0
0.154324 -0.00171831 0.0
0.121659 -0.00115552 0.0
0.0844327 -0.000644421 0.0
0.0435966 -0.000204674 0.0
0.241921 -0.00451678 0.0
0.248147 -0.00435331 0.0
0.237394 -0.00363577 0.0
0.249384 -0.00446699 0.0
0.24585 -0.00402388 0.0
0.224039 -0.00318927 0.0
0.205555 -0.00279842 0.0
0.242 -0.00495026 0.0
0.230891 -0.00464266 0.0
0.0523695 -0.000339133 0.0
0.0972369 -0.00113566 0.0
0.135249 -0.00208999 0.0
0.167197 -0.00299058 0.0
0.214944 -0.00445614 0.0
0.193612 -0.00372245 0.0
0 0 0.0
0 0 0.0
0.153867 -0.00177382 0.0
0.18179 -0.00238667 0.0
0.0839835 -0.000660446 0.0
0.121022 -0.00120227 0.0
0.0432285 -0.000214085 0.0
0.248073 -0.00506099 0.0
0.249166 -0.00493876 0.0
0.205016 -0.00298817 0.0
0.237082 -0.00388546 0.0
0.24562 -0.00432746 0.0
0.223401 -0.00353282 0.0
0.242071 -0.00540485 0.0
0.231277 -0.00546115 0.0
0.215428 -0.00506446 0.0
0.0530867 -0.00040163 0.0
0.0982341 -0.00133549 0.0
0.136431 -0.00248858 0.0
0.168081 -0.00344268 0.0
0.194479 -0.00441052 0.0
0 0 0.0
0 0 0.0
0.153127 -0.00185169 0.0
0.181151 -0.00251253 0.0
0.0834269 -0.000674788 0.0
0.120443 -0.00123232 0.0
0.0428407 -0.000219807 0.0
0.245348 -0.00465092 0.0
0.248895 -0.00544618 0.0
0.247951 -0.00564033 0.0
0.204404 -0.00317999 0.0
0.236636 -0.004226 0.0
0.222837 -0.00381451 0.0
0.180451 -0.00262972 0.0
0.242134 -0.00632852 0.0
0 0 0.0
0.231527 -0.00618022 0.0
0.195244 -0.00506729 0.0
0.215933 -0.00575063 0.0
0.0538591 -0.000474181 0.0
0.137443 -0.00284743 0.0
0.0995277 -0.00160604 0.0
0.169271 -0.0041127 0.0
0 0 0.0
0 0 0.0
0 0 0.0
0 0 0.0
0 0 0.0
0.0424836 -0.000221829 0.0
0.119841 -0.00125501 0.0
0.152454 -0.00191073 0.0
0.0829536 -0.000684776 0.0
0.244933 -0.00508668 0.0
0.248547 -0.00601121 0.0
0.247792 -0.0062776 0.0
0.22231 -0.00403672 0.0
0.203707 -0.00337426 0.0
0.23587 -0.0047366 0.0
0.20305 -0.00353903 0.0
0.17987 -0.00271055 0.0
0.242116 -0.00709837 0.0
0.231776 -0.006968 0.0
0 0 0.0
9.44026e-05 -4.00266e-05 0.0
0 0 0.0
-0.000312968 0.00168191 0.0
0.216465 -0.00654543 0.0
0.195867 -0.00561622 0.0
0.0548607 -0.000572649 0.0
0.138777 -0.00332716 0.0
0.100909 -0.00190277 0.0
0.170409 -0.00477508 0.0
0 0 0.0
0 0 0.0
0 0 0.0
-0.000227319 0.00086278 0.0
-9.16143e-06 -0.0001335 0.0
6.09627e-05 -7.92904e-05 0.0
0 0 0.0
0.0420969 -0.000225345 0.0
0.119313 -0.00126559 0.0
0.151734 -0.00196057 0.0
0.0823798 -0.000691835 0.0
0.244438 -0.00557144 0.0
0.248114 -0.00662856 0.0
0.247556 -0.00697713 0.0
0.221718 -0.00427897 0.0
0.23535 -0.00506434 0.0
0.20232 -0.00370144 0.0
0.178821 -0.0028448 0.0
0.242056 -0.00794245 0.0
0.234962 -0.00784404 0.0
0.225068 -0.00755871 0.0
0 0 0.0
0.000151335 -8.85761e-06 0.0
0 0 0.0
0 0 0.0
-0.00112322 0.00391605 0.0
-0.00105396 0.00249436 0.0
0.212339 -0.00712202 0.0
0.196738 -0.00645017 0.0
0.102359 -0.00222421 0.0
0.0559474 -0.000692078 0.0
0.140296 -0.00390505 0.0
0.171657 -0.00554451 0.0
0 0 0.0
-0.000343967 0.000361016 0.0
-0.000693377 0.00121659 0.0
-0.000184177 9.58281e-05 0.0
-0.000116617 0.000138496 0.0
0 0 0.0
0.0417093 -0.0002279 0.0
0.118676 -0.00127571 0.0
0.150972 -0.00199815 0.0
0.0818489 -0.000695625 0.0
0.243841 -0.00609182 0.0
0.247586 -0.00729854 0.0
0.247236 -0.0077468 0.0
0.220601 -0.00469728 0.0
0.234759 -0.0053943 0.0
0.20136 -0.00390902 0.0
0.150161 -0.00204841 0.0
0.17788 -0.00296092 0.0
0.241952 -0.00867528 0.0
0.23211 -0.00850956 0.0
0.217377 -0.00816671 0.0
0 0 0.0
-2.6261e-05 9.72856e-05 0.0
0 0 0.0
0 0 0.0
0 0 0.0
0 0 0.0
-0.00187614 0.00267022 0.0
-0.000324571 0.00344292 0.0
-0.00116657 0.0051631 0.0
-0.00269188 0.00681413 0.0
-0.00222822 0.00456625 0.0
0 0 0.0
-7.83794e-05 0.00540024 0.0
0.197898 -0.00769401 0.0
0.172751 -0.00627708 0.0
0 0 0.0
0.0573896 -0.000860929 0.0
0.104222 -0.00267024 0.0
0.142312 -0.00475808 0.0
0 0 0.0
0 0 0.0
-0.0010839 0.0012211 0.0
-0.000778266 0.000674946 0.0
-0.000685029 0.000485116 0.0