# vtk DataFile Version 3.0
Mesh NS-CD Problem
ASCII
DATASET UNSTRUCTURED_GRID
POINTS 10839 float
-2 0.3 0.0
-2 0.4 0.0
-2 0.35 0.0
-2 0.45 0.0
-2 0.5 0.0
-2 0.55 0.0
-2 0 0.0
-2 0.05 0.0
-2 0.85 0.0
-2 0.9 0.0
-2 0.1 0.0
-2 0.15 0.0
-2 0.25 0.0
-2 0.2 0.0
-1.96653 0.266667 0.0
-1.96524 0.415385 0.0
-1.96485 0.315 0.0
-1.96348 0.363636 0.0
-1.96414 0.464286 0.0
-2 0.6 0.0
-1.96538 0.584615 0.0
-1.96538 0.538462 0.0
-1.94979 0 0.0
-1.96653 0.0666666 0.0
-1.93306 0.0333333 0.0
-2 0.8 0.0
-2 0.75 0.0
-2 0.7 0.0
-2 0.65 0.0
-1.96249 0.7375 0.0
-1.96666 0.833333 0.0
-2 1 0.0
-2 0.95 0.0
-1.96249 0.8875 0.0
-1.96666 0.933333 0.0
-1.96234 0.1125 0.0
-1.96653 0.166667 0.0
-1.93724 0.225 0.0
-1.92971 0.28 0.0
-1.93048 0.380769 0.0
-1.93048 0.423077 0.0
-1.89958 0.3375 0.0
-1.9292 0.484203 0.0
-1.92117 0.530907 0.0
-1.96363 0.636364 0.0
-1.93076 0.576923 0.0
-1.89958 0 0.0
-1.88703 0.0375 0.0
-1.90963 0.08 0.0
-1.86611 0.0666666 0.0
-1.93749 0.775 0.0
-1.93635 0.672727 0.0
-1.92999 0.72 0.0
-1.93332 0.866667 0.0
-1.92856 0.821429 0.0
-1.94999 1 0.0
-1.92499 0.9625 0.0
-1.92499 0.925 0.0
-1.89998 0.9 0.0
-1.89958 0.125 0.0
-1.92827 0.178571 0.0
-1.89958 0.233333 0.0
-1.89045 0.290909 0.0
-1.86096 0.311538 0.0
-1.89241 0.392857 0.0
-1.89334 0.448489 0.0
-1.85655 0.357143 0.0
-1.89614 0.653846 0.0
-1.89427 0.504121 0.0
-1.8952 0.559753 0.0
-1.89614 0.615385 0.0
-1.84937 0 0.0
-1.83264 0.0333333 0.0
-1.85655 0.107143 0.0
-1.81172 0.075 0.0
-1.89998 0.766667 0.0
-1.89089 0.709091 0.0
-1.87498 0.85 0.0
-1.85998 0.79 0.0
-1.88748 0.8125 0.0
-1.89998 1 0.0
-1.88748 0.9625 0.0
-1.86664 0.933333 0.0
-1.85712 0.892857 0.0
-1.87448 0.15 0.0
-1.86611 0.194444 0.0
-1.83264 0.133333 0.0
-1.83264 0.2625 0.0
-1.82068 0.321429 0.0
-1.85664 0.404762 0.0
-1.85674 0.452381 0.0
-1.85683 0.5 0.0
-1.81184 0.375 0.0
-1.85712 0.642857 0.0
-1.85693 0.547619 0.0
-1.85702 0.595238 0.0
-1.79917 0 0.0
-1.78482 0.0357143 0.0
-1.79917 0.116667 0.0
-1.76569 0.0666666 0.0
-1.85452 0.745455 0.0
-1.82689 0.692308 0.0
-1.81815 0.781818 0.0
-1.82497 0.825 0.0
-1.84997 1 0.0
-1.8333 0.958333 0.0
-1.81247 0.8875 0.0
-1.81247 0.925 0.0
-1.81742 0.218182 0.0
-1.82427 0.175 0.0
-1.77634 0.145455 0.0
-1.79144 0.242308 0.0
-1.78482 0.285714 0.0
-1.77469 0.332653 0.0
-1.81215 0.529762 0.0
-1.81194 0.422619 0.0
-1.81203 0.470238 0.0
-1.76714 0.392857 0.0
-1.81234 0.625 0.0
-1.79732 0.571429 0.0
-1.74896 0 0.0
-1.73222 0.0333333 0.0
-1.75398 0.105 0.0
-1.71883 0.07 0.0
-1.79227 0.730769 0.0
-1.78007 0.679121 0.0
-1.75765 0.769231 0.0
-1.78178 0.818182 0.0
-1.78996 0.86 0.0
-1.79996 1 0.0
-1.78568 0.964286 0.0
-1.76663 0.922222 0.0
-1.76569 0.1875 0.0
-1.73222 0.15 0.0
-1.74896 0.25 0.0
-1.73714 0.304762 0.0
-1.76743 0.537202 0.0
-1.72869 0.343878 0.0
-1.76732 0.485119 0.0
-1.76723 0.440476 0.0
-1.72243 0.410714 0.0
-1.76757 0.607143 0.0
-1.69875 0 0.0
-1.68369 0.035 0.0
-1.69875 0.1125 0.0
-1.66528 0.075 0.0
-1.74341 0.708974 0.0
-1.73324 0.665934 0.0
-1.70441 0.74478 0.0
-1.71423 0.785714 0.0
-1.72303 0.826923 0.0
-1.74541 0.854545 0.0
-1.74541 0.890909 0.0
-1.74996 1 0.0
-1.73745 0.9625 0.0
-1.71359 0.927273 0.0
-1.68716 0.153846 0.0
-1.7131 0.214286 0.0
-1.70725 0.275 0.0
-1.69712 0.321939 0.0
-1.72279 0.589286 0.0
-1.72261 0.5 0.0
-1.7227 0.544643 0.0
-1.6827 0.355102 0.0
-1.67773 0.428571 0.0
-1.70763 0.464286 0.0
-1.70369 0.62449 0.0
-1.64854 0 0.0
-1.63181 0.0375 0.0
-1.64137 0.142857 0.0
-1.61764 0.0769231 0.0
-1.69458 0.703846 0.0
-1.67471 0.657437 0.0
-1.66143 0.727637 0.0
-1.67125 0.768571 0.0
-1.67851 0.821429 0.0
-1.68841 0.861538 0.0
-1.70904 0.890909 0.0
-1.69995 1 0.0
-1.68176 0.963636 0.0
-1.67267 0.927273 0.0
-1.65427 0.187143 0.0
-1.66718 0.231429 0.0
-1.66554 0.3 0.0
-1.67802 0.571429 0.0
-1.67792 0.523809 0.0
-1.6367 0.366327 0.0
-1.63682 0.423469 0.0
-1.62568 0.502976 0.0
-1.6629 0.470238 0.0
-1.65254 0.618367 0.0
-1.6059 0.307143 0.0
-1.59833 0 0.0
-1.58288 0.0384615 0.0
-1.60563 0.169643 0.0
-1.58179 0.112271 0.0
-1.56964 0.0714286 0.0
-1.64574 0.690385 0.0
-1.62827 0.751429 0.0
-1.63371 0.791071 0.0
-1.64279 0.857143 0.0
-1.65378 0.896154 0.0
-1.64994 1 0.0
-1.6363 0.963636 0.0
-1.61916 0.930769 0.0
-1.61345 0.209107 0.0
-1.62126 0.248571 0.0
-1.56989 0.196429 0.0
-1.63324 0.553571 0.0
-1.58846 0.535714 0.0
-1.59408 0.361905 0.0
-1.59161 0.402211 0.0
-1.58832 0.464286 0.0
-1.61504 0.598581 0.0
-1.59683 0.64359 0.0
-1.57899 0.274107 0.0
-1.56176 0.322381 0.0
-1.54812 0 0.0
-1.53378 0.0357143 0.0
-1.54593 0.147619 0.0
-1.53385 0.0732143 0.0
-1.53393 0.110714 0.0
-1.58522 0.704286 0.0
-1.58709 0.745 0.0
-1.58896 0.785714 0.0
-1.60695 0.830357 0.0
-1.60707 0.892857 0.0
-1.59993 1 0.0
-1.58454 0.965385 0.0
-1.57135 0.928571 0.0
-1.55209 0.241071 0.0
-1.5291 0.198214 0.0
-1.56936 0.570918 0.0
-1.54369 0.517857 0.0
-1.5464 0.380952 0.0
-1.54564 0.427721 0.0
-1.54488 0.47449 0.0
-1.55026 0.606122 0.0
-1.54222 0.677143 0.0
-1.52943 0.282857 0.0
-1.52143 0.33619 0.0
-1.49792 0 0.0
-1.49802 0.05 0.0
-1.49822 0.15 0.0
-1.49312 0.1 0.0
-1.5423 0.717143 0.0
-1.54419 0.767857 0.0
-1.54727 0.819048 0.0
-1.57122 0.861905 0.0
-1.53553 0.914286 0.0
-1.54992 1 0.0
-1.53563 0.964286 0.0
-1.49842 0.25 0.0
-1.48831 0.2 0.0
-1.5214 0.558929 0.0
-1.49891 0.5 0.0
-1.49871 0.4 0.0
-1.47631 0.45 0.0
-1.49911 0.6 0.0
-1.49921 0.65 0.0
-1.49931 0.7 0.0
-1.48111 0.35 0.0
-1.48351 0.3 0.0
-1.44771 0 0.0
-1.44782 0.05 0.0
-1.44804 0.15 0.0
-1.44793 0.1 0.0
-1.49941 0.75 0.0
-1.49951 0.8 0.0
-1.49981 0.95 0.0
-1.49961 0.85 0.0
-1.49971 0.9 0.0
-1.49991 1 0.0
-1.44826 0.25 0.0
-1.43815 0.2 0.0
-1.47151 0.55 0.0
-1.44881 0.5 0.0
-1.44859 0.4 0.0
-1.42619 0.45 0.0
-1.44913 0.65 0.0
-1.44902 0.6 0.0
-1.44935 0.75 0.0
-1.44924 0.7 0.0
-1.43972 0.35 0.0
-1.43336 0.3 0.0
-1.3975 0 0.0
-1.39762 0.05 0.0
-1.39786 0.15 0.0
-1.39274 0.1 0.0
-1.44957 0.85 0.0
-1.44946 0.8 0.0
-1.4523 0.95 0.0
-1.44968 0.9 0.0
-1.4499 1 0.0
-1.3981 0.25 0.0
-1.38798 0.2 0.0
-1.42141 0.55 0.0
-1.3987 0.5 0.0
-1.39834 0.35 0.0
-1.37845 0.4 0.0
-1.37607 0.45 0.0
-1.40784 0.65 0.0
-1.39894 0.6 0.0
-1.41185 0.75 0.0
-1.39918 0.7 0.0
-1.38322 0.3 0.0
-1.34729 0 0.0
-1.34492 0.05 0.0
-1.34018 0.15 0.0
-1.34255 0.1 0.0
-1.40707 0.85 0.0
-1.39941 0.8 0.0
-1.39977 0.95 0.0
-1.39965 0.9 0.0
-1.39989 1 0.0
-1.33781 0.2 0.0
-1.33544 0.25 0.0
-1.37131 0.55 0.0
-1.34859 0.5 0.0
-1.33833 0.4 0.0
-1.3307 0.35 0.0
-1.32595 0.45 0.0
-1.34885 0.6 0.0
-1.36655 0.65 0.0
-1.36179 0.75 0.0
-1.34911 0.7 0.0
-1.33307 0.3 0.0
-1.29708 0 0.0
-1.29722 0.05 0.0
-1.2975 0.15 0.0
-1.29236 0.1 0.0
-1.35703 0.85 0.0
-1.34937 0.8 0.0
-1.34988 1 0.0
-1.34962 0.9 0.0
-1.35226 0.95 0.0
-1.28528 0.25 0.0
-1.28764 0.2 0.0
-1.28931 0.35 0.0
-1.32121 0.55 0.0
-1.29848 0.5 0.0
-1.28709 0.45 0.0
-1.2982 0.4 0.0
-1.29876 0.6 0.0
-1.31647 0.65 0.0
-1.29918 0.75 0.0
-1.29904 0.7 0.0
-1.28292 0.3 0.0
-1.24687 0 0.0
-1.24702 0.05 0.0
-1.24717 0.1 0.0
-1.24732 0.15 0.0
-1.29946 0.85 0.0
-1.29932 0.8 0.0
-1.29987 1 0.0
-1.29974 0.95 0.0
-1.30462 0.9 0.0
-1.24762 0.25 0.0
-1.23747 0.2 0.0
-1.24792 0.35 0.0
-1.22807 0.4 0.0
-1.27111 0.55 0.0
-1.24837 0.5 0.0
-1.24822 0.45 0.0
-1.24867 0.6 0.0
-1.26639 0.65 0.0
-1.26167 0.75 0.0
-1.24897 0.7 0.0
-1.23277 0.3 0.0
-1.19667 0 0.0
-1.19683 0.05 0.0
-1.18964 0.15 0.0
-1.19198 0.1 0.0
-1.25695 0.85 0.0
-1.24927 0.8 0.0
-1.25223 0.95 0.0
-1.24987 1 0.0
-1.24957 0.9 0.0
-1.1873 0.2 0.0
-1.18496 0.25 0.0
-1.18028 0.35 0.0
-1.17794 0.4 0.0
-1.1981 0.45 0.0
-1.19842 0.55 0.0
-1.19826 0.5 0.0
-1.19858 0.6 0.0
-1.19874 0.65 0.0
-1.19906 0.75 0.0
-1.1989 0.7 0.0
-1.18262 0.3 0.0
-1.14646 0 0.0
-1.14663 0.05 0.0
-1.1418 0.1 0.0
-1.13713 0.2 0.0
-1.14697 0.15 0.0
-1.20691 0.85 0.0
-1.20926 0.8 0.0
-1.20221 0.95 0.0
-1.19986 1 0.0
-1.20456 0.9 0.0
-1.13997 0.3 0.0
-1.14731 0.25 0.0
-1.13781 0.4 0.0
-1.13014 0.35 0.0
-1.12548 0.45 0.0
-1.14815 0.5 0.0
-1.15962 0.55 0.0
-1.14849 0.6 0.0
-1.15745 0.65 0.0
-1.16155 0.75 0.0
-1.14917 0.8 0.0
-1.14883 0.7 0.0
-1.09625 0 0.0
-1.09661 0.1 0.0
-1.09393 0.05 0.0
-1.09697 0.2 0.0
-1.08929 0.15 0.0
-1.15687 0.85 0.0
-1.14985 1 0.0
-1.15219 0.95 0.0
-1.14951 0.9 0.0
-1.09733 0.3 0.0
-1.08465 0.25 0.0
-1.09769 0.4 0.0
-1.08 0.35 0.0
-1.08661 0.45 0.0
-1.09804 0.5 0.0
-1.12082 0.55 0.0
-1.10916 0.8 0.0
-1.10629 0.7 0.0
-1.0984 0.6 0.0
-1.11616 0.65 0.0
-1.11149 0.75 0.0
-1.04604 0 0.0
-1.04623 0.05 0.0
-1.04642 0.1 0.0
-1.0468 0.2 0.0
-1.03911 0.15 0.0
-1.09948 0.9 0.0
-1.0993 0.85 0.0
-1.09984 1 0.0
-1.09966 0.95 0.0
-1.04718 0.3 0.0
-1.03449 0.25 0.0
-1.04756 0.4 0.0
-1.02986 0.35 0.0
-1.04775 0.45 0.0
-1.04794 0.5 0.0
-1.04813 0.55 0.0
-1.05911 0.8 0.0
-1.04831 0.6 0.0
-1.06376 0.7 0.0
-1.0485 0.65 0.0
-1.04888 0.75 0.0
-0.995833 0 0.0
-0.991231 0.1 0.0
-0.996033 0.05 0.0
-0.986629 0.2 0.0
-0.98893 0.15 0.0
-1.05447 0.9 0.0
-1.04926 0.85 0.0
-1.04983 1 0.0
-1.04964 0.95 0.0
-0.984328 0.25 0.0
-0.99703 0.3 0.0
-0.997429 0.4 0.0
-0.997628 0.45 0.0
-0.979726 0.35 0.0
-0.997827 0.5 0.0
-0.998027 0.55 0.0
-0.998226 0.6 0.0
-0.961416 0.475 0.0
-1.00907 0.8 0.0
-0.998426 0.65 0.0
-0.998625 0.7 0.0
-1.01138 0.75 0.0
-0.945625 0 0.0
-0.946044 0.1 0.0
-0.943334 0.05 0.0
-0.946463 0.2 0.0
-0.938752 0.15 0.0
-1.00444 0.9 0.0
-1.00675 0.85 0.0
-0.999821 1 0.0
-1.00213 0.95 0.0
-0.93417 0.25 0.0
-0.946881 0.3 0.0
-0.9473 0.4 0.0
-0.929588 0.35 0.0
-0.925005 0.45 0.0
-0.960371 0.525 0.0
-0.959325 0.575 0.0
-0.958279 0.625 0.0
-0.922714 0.5 0.0
-0.959017 0.8 0.0
-0.957233 0.675 0.0
-0.952999 0.7125 0.0
-0.948766 0.75 0.0
-0.895417 0 0.0
-0.895855 0.1 0.0
-0.893136 0.05 0.0
-0.896294 0.2 0.0
-0.888573 0.15 0.0
-0.949184 0.85 0.0
-0.954415 0.9 0.0
-0.949812 1 0.0
-0.949603 0.95 0.0
-0.884011 0.25 0.0
-0.896733 0.3 0.0
-0.874887 0.45 0.0
-0.879449 0.35 0.0
-0.897171 0.4 0.0
-0.920423 0.55 0.0
-0.918132 0.6 0.0
-0.915841 0.65 0.0
-0.872606 0.5 0.0
-0.908968 0.8 0.0
-0.91355 0.7 0.0
-0.898707 0.75 0.0
-0.845208 0 0.0
-0.845438 0.05 0.0
-0.845667 0.1 0.0
-0.845896 0.15 0.0
-0.833853 0.25 0.0
-0.846126 0.2 0.0
-0.899146 0.85 0.0
-0.904386 0.9 0.0
-0.899584 0.95 0.0
-0.899804 1 0.0
-0.838062 0.35 0.0
[...]
POINT_DATA 10839
VECTORS Velocity float
0.21 0 0.0
0.24 0 0.0
0.2275 0 0.0
0.2475 0 0.0
0.25 0 0.0
0.2475 0 0.0
0 0 0.0
0.0475 0 0.0
0.1275 0 0.0
0.09 0 0.0
0.09 0 0.0
0.1275 0 0.0
0.1875 0 0.0
0.16 0 0.0
0.195575 -0.000147364 0.0
0.242823 -0.000125501 0.0
0.215775 -0.000181633 0.0
0.231395 -0.000178036 0.0
0.248696 -5.94884e-05 0.0
0.24 0 0.0
0.242822 9.49049e-05 0.0
0.248493 2.52787e-05 0.0
0 0 0.0
0.0622116 9.96646e-05 0.0
0.0320575 0.000148332 0.0
0.16 0 0.0
0.1875 0 0.0
0.21 0 0.0
0.2275 0 0.0
0.193614 0.000140231 0.0
0.138919 -1.63366e-05 0.0
0 0 0.0
0.0475 0 0.0
0.0998596 -0.000123697 0.0
0.0622088 -0.000103959 0.0
0.0998711 0.000103375 0.0
0.138919 3.3575e-06 0.0
0.174455 -0.000197002 0.0
0.201649 -0.000376112 0.0
0.23573 -0.000348614 0.0
0.244003 -0.000258024 0.0
0.223564 -0.000640731 0.0
0.249637 -7.5679e-05 0.0
0.24892 7.44442e-05 0.0
0.231391 0.000144338 0.0
0.244003 0.000203551 0.0
0 0 0.0
0.0354428 0.000324526 0.0
0.0735143 0.000555398 0.0
0.0617417 0.000582362 0.0
0.174449 0.000156623 0.0
0.220159 0.000305498 0.0
0.201652 0.000331271 0.0
0.11568 -0.000225083 0.0
0.146839 9.23731e-06 0.0
0 0 0.0
0.0358547 -0.000208613 0.0
0.0692767 -0.000443118 0.0
0.0901276 -0.00062003 0.0
0.109694 0.000444662 0.0
0.146837 -4.67642e-05 0.0
0.179129 -0.000455945 0.0
0.206372 -0.000744731 0.0
0.214509 -0.00111637 0.0
0.238353 -0.000584179 0.0
0.247102 -0.00032971 0.0
0.229382 -0.00107907 0.0
0.226268 0.000601306 0.0
0.249718 -1.1558e-05 0.0
0.246202 0.000271808 0.0
0.236548 0.000482196 0.0
0 0 0.0
0.0310794 0.000137105 0.0
0.0960804 0.000464663 0.0
0.0692768 -0.000501447 0.0
0.179113 0.000383317 0.0
0.206343 0.00066256 0.0
0.128112 -0.000245262 0.0
0.16652 0.000565015 0.0
0.152788 0.000146209 0.0
0 0 0.0
0.0354326 -0.000329944 0.0
0.0617283 -0.00059649 0.0
0.0960625 -0.000488231 0.0
0.128137 0.000199332 0.0
0.157275 -0.000414731 0.0
0.116562 -0.000222973 0.0
0.19404 -0.00144055 0.0
0.218015 -0.00177107 0.0
0.240547 -0.000822766 0.0
0.247242 -0.000473935 0.0
0.249471 -6.47325e-05 0.0
0.233802 -0.00160539 0.0
0.229383 0.000948128 0.0
0.247243 0.000341084 0.0
0.240534 0.000706963 0.0
0 0 0.0
0.0336869 -0.000359161 0.0
0.104035 -0.00138848 0.0
0.0631543 -0.00199635 0.0
0.190101 0.000989764 0.0
0.21304 0.00153765 0.0
0.171512 0.00139832 0.0
0.145569 0.000718605 0.0
0 0 0.0
0.0387954 -0.000153064 0.0
0.100626 0.000727352 0.0
0.0692068 0.000436279 0.0
0.171611 -0.00151296 0.0
0.145595 -0.000845548 0.0
0.12576 -0.00294787 0.0
0.184466 -0.00244466 0.0
0.204313 -0.00272421 0.0
0.221509 -0.00275909 0.0
0.248113 0.000312799 0.0
0.243163 -0.00110566 0.0
0.24812 -0.000486184 0.0
0.237237 -0.00218403 0.0
0.233776 0.0014567 0.0
0.243842 0.00100894 0.0
0 0 0.0
0.033498 -0.000959328 0.0
0.0955565 -0.00409319 0.0
0.0691651 -0.00418953 0.0
0.197202 0.00235247 0.0
0.217567 0.00255388 0.0
0.178543 0.00376204 0.0
0.150199 0.00252634 0.0
0.121667 0.00192559 0.0
0 0 0.0
0.0336391 0.000324601 0.0
0.0727818 0.00247424 0.0
0.153863 -0.00356063 0.0
0.128877 -0.00652517 0.0
0.188246 -0.00428653 0.0
0.21148 -0.00437955 0.0
0.246868 0.000699684 0.0
0.224333 -0.00407315 0.0
0.247994 -0.000405457 0.0
0.244819 -0.00131218 0.0
0.239602 -0.00273341 0.0
0.237212 0.00195878 0.0
0 0 0.0
0.0388249 -0.00166905 0.0
0.103505 -0.00864693 0.0
0.0793213 -0.00680322 0.0
0.206179 0.00411405 0.0
0.221367 0.00389432 0.0
0.189987 0.00707685 0.0
0.16904 0.00715064 0.0
0.144271 0.00716263 0.0
0.125648 0.00523156 0.0
0.0989357 0.00482446 0.0
0 0 0.0
0.0372593 0.00112862 0.0
0.0718803 0.0046238 0.0
0.131605 -0.0110622 0.0
0.169151 -0.0072681 0.0
0.199036 -0.00651881 0.0
0.21672 -0.0060462 0.0
0.239571 0.00244257 0.0
0.24709 -0.000104135 0.0
0.2452 0.00123045 0.0
0.226261 -0.00572319 0.0
0.240757 -0.00316396 0.0
0.245442 -0.00133227 0.0
0.232012 0.00401336 0.0
0 0 0.0
0.0471036 -0.00235386 0.0
0.125814 -0.0149894 0.0
0.0878182 -0.00829559 0.0
0.207279 0.00669454 0.0
0.222382 0.00637635 0.0
0.196319 0.0102179 0.0
0.177069 0.0108712 0.0
0.14698 0.0117227 0.0
0.1214 0.0105335 0.0
0.100343 0.00762667 0.0
0 0 0.0
0.040429 0.00179475 0.0
0.0763256 0.00625672 0.0
0.151996 -0.0143207 0.0
0.177074 -0.0114806 0.0
0.207861 -0.00878415 0.0
0.240744 0.00287117 0.0
0.244911 0.000845218 0.0
0.227106 -0.00769486 0.0
0.238107 -0.00453481 0.0
0.24272 1.61838e-05 0.0
0.243955 -0.00154383 0.0
0.231369 0.00580374 0.0
0.207275 -0.0137352 0.0
0 0 0.0
0.0542291 -0.00258012 0.0
0.142277 -0.0189338 0.0
0.116009 -0.0145554 0.0
0.0914507 -0.00763741 0.0
0.210359 0.0097612 0.0
0.183766 0.0148386 0.0
0.163608 0.0158476 0.0
0.125829 0.0148336 0.0
0.101338 0.0108327 0.0
0 0 0.0
0.0451087 0.00217818 0.0
0.0811531 0.00697786 0.0
0.163275 -0.0182685 0.0
0.183632 -0.0157807 0.0
0.156544 -0.0221707 0.0
0.240577 0.00302343 0.0
0.238913 0.00263679 0.0
0.223242 -0.0107816 0.0
0.231727 -0.00782587 0.0
0.238997 -0.00303332 0.0
0.233159 0.00637279 0.0
0.221907 0.0106799 0.0
0.192474 -0.0187081 0.0
0.209094 -0.0165831 0.0
0 0 0.0
0.056289 -0.00212724 0.0
0.136758 -0.0198289 0.0
0.0991541 -0.00766415 0.0
0.123002 -0.0142701 0.0
0.201403 0.0163017 0.0
0.18446 0.0188192 0.0
0.165117 0.0203842 0.0
0.142122 0.0187347 0.0
0.109272 0.0131501 0.0
0 0 0.0
0.0488633 0.00212453 0.0
0.0910804 0.00753796 0.0
0.176778 -0.0228913 0.0
0.158453 -0.0241528 0.0
0.233894 0.00620969 0.0
0.235633 0.00161682 0.0
0.223529 -0.0122956 0.0
0.231511 -0.00760484 0.0
0.235512 -0.00282848 0.0
0.226446 0.0103755 0.0
0.207333 0.0178294 0.0
0.1926 -0.0223279 0.0
0.209703 -0.0183371 0.0
0 0 0.0
0.0800018 -0.00358578 0.0
0.14374 -0.0196553 0.0
0.124732 -0.0114514 0.0
0.193198 0.0210186 0.0
0.172435 0.0234599 0.0
0.150156 0.0225858 0.0
0.129315 0.018243 0.0
0.10828 0.00970274 0.0
0 0 0.0
0.0559172 0.00212954 0.0
0.178842 -0.0253024 0.0
0.161191 -0.0245044 0.0
0.230368 0.00658887 0.0
0.230808 -0.000248833 0.0
0.222041 -0.0126281 0.0
0.225714 -0.00696831 0.0
0.221938 0.0121323 0.0
0.211043 0.0177883 0.0
0.196194 0.022374 0.0
0.209326 -0.0189921 0.0
0.195338 -0.0233702 0.0
0 0 0.0
0.0859852 -0.00278483 0.0
0.15076 -0.0175281 0.0
0.132328 -0.00982461 0.0
0.17858 0.0250111 0.0
0.160224 0.0242888 0.0
0.0795029 0.00355489 0.0
0.143081 0.0195587 0.0
0.123125 0.0115309 0.0
0 0 0.0
0.178396 -0.0251816 0.0
0.164783 -0.0226949 0.0
0.224991 0.00652253 0.0
0.223996 -0.000274361 0.0
0.215888 -0.0139794 0.0
0.218866 -0.00743966 0.0
0.205732 0.019222 0.0
0.215737 0.0134302 0.0
0.178017 0.0248247 0.0
0.192776 0.0233179 0.0
0.20507 -0.0197321 0.0
0.192232 -0.0235282 0.0
0 0 0.0
0.090881 -0.00201298 0.0
0.157665 -0.0144844 0.0
0.140272 -0.00753964 0.0
0.150312 0.0173196 0.0
0.163495 0.0229184 0.0
0.085135 0.00278745 0.0
0.131602 0.0096922 0.0
0 0 0.0
0.179078 -0.0227102 0.0
0.168961 -0.0193398 0.0
0.218052 0.00686738 0.0
0.216777 -0.000327321 0.0
0.201257 -0.0190724 0.0
0.207264 -0.0134295 0.0
0.211927 -0.00718621 0.0
0.201766 0.0187885 0.0
0.209493 0.013259 0.0
0.178443 0.0230899 0.0
0.190282 0.02177 0.0
0.1901 -0.0214591 0.0
0 0 0.0
0.0943335 -0.00152753 0.0
0.164551 -0.0107334 0.0
0.146037 -0.00557911 0.0
0.156047 0.0147476 0.0
0.167584 0.0197626 0.0
0.0900251 0.00203021 0.0
0.138871 0.00761156 0.0
0 0 0.0
0.173038 -0.0153658 0.0
0.180733 -0.0178385 0.0
0.211186 0.00643884 0.0
0.209864 -0.000371687 0.0
0.203085 -0.0120532 0.0
0.196172 -0.0157639 0.0
0.205724 -0.0063326 0.0
0.203876 0.011768 0.0
0.198354 0.0171202 0.0
0.179525 0.0194677 0.0
0.188716 0.0185263 0.0
0.188808 -0.0179553 0.0
0 0 0.0
0.0965259 -0.00107155 0.0
0.168738 -0.00827752 0.0
0.15038 -0.00393899 0.0
0.162144 0.0114429 0.0
0.171617 0.0158119 0.0
0 0 0.0
0.14469 0.00558035 0.0
0.0932973 0.00144789 0.0
0.182304 -0.0137378 0.0
0.176595 -0.0115816 0.0
0.193976 -0.0130979 0.0
0.205051 0.00542322 0.0
0.203861 -0.000427259 0.0
0.201659 -0.00545547 0.0
0.199458 -0.0103211 0.0
0.199222 0.00951829 0.0
0.194991 0.0140927 0.0
0.181307 0.0141746 0.0
0.18781 0.0145972 0.0
0.188115 -0.0140778 0.0
0 0 0.0
0.0983569 -0.00067967 0.0
0.153189 -0.0028082 0.0
0.172495 -0.00589415 0.0
0.167869 0.00794291 0.0
0.175223 0.0118786 0.0
0 0 0.0
0.0958048 0.00095708 0.0
0.148586 0.00403186 0.0
0.183381 -0.010984 0.0
0.179494 -0.00841579 0.0
0.192235 -0.0104974 0.0
0.194727 -0.00722369 0.0
0.200027 0.00415408 0.0
0.199076 -0.000507398 0.0
0.19828 -0.00456048 0.0
0.195623 0.00712512 0.0
0.192525 0.0107568 0.0
0.182372 0.0112415 0.0
0.187322 0.0107897 0.0
0.187817 -0.0105555 0.0
0 0 0.0
0.099538 -0.000404101 0.0
0.175838 -0.00389039 0.0
0.155798 -0.0018064 0.0
0.171107 0.00583068 0.0
0.178129 0.00847863 0.0
0.0972726 0.000620029 0.0
0 0 0.0
0.152076 0.00256195 0.0
0.18168 -0.00598757 0.0
0.184781 -0.00730562 0.0
0.190336 -0.00699827 0.0
0.192484 -0.00541344 0.0
0.194956 -0.00354442 0.0
0.194756 0.00240095 0.0
0.195478 -0.00058753 0.0
0.192959 0.00498017 0.0
0.190229 0.00677819 0.0
0.18372 0.00717401 0.0
0.187054 0.00757146 0.0
0.187676 -0.00769108 0.0
0 0 0.0
0.100408 -0.000262331 0.0
0.157226 -0.00124678 0.0
0.183312 -0.0042335 0.0
0.177441 -0.00284675 0.0
0.173949 0.00388454 0.0
0.179949 0.00627777 0.0
0.0982957 0.000357153 0.0
0 0 0.0
0.15408 0.0016968 0.0
0.18766 -0.00584459 0.0
0.185511 -0.00569367 0.0
0.191159 -0.00428563 0.0
0.18947 -0.00513546 0.0
0.191727 -0.00250718 0.0
0.192884 -0.000684097 0.0
0.192852 0.00163039 0.0
0.191052 0.00325419 0.0
0.18932 0.00487433 0.0
0.184381 0.00531599 0.0
0.181957 0.00379051 0.0
0.186884 0.00507157 0.0
0 0 0.0
0.158326 -0.000896192 0.0
0.100866 -0.00023659 0.0
0.184364 -0.00322674 0.0
0.179143 -0.00193306 0.0
0.175936 0.0024727 0.0
0 0 0.0
0.0989027 0.000165745 0.0
0.155657 0.000963041 0.0
0.187691 -0.00446495 0.0
0.186354 -0.00380926 0.0
0.190195 -0.00344918 0.0
0.188893 -0.0038311 0.0
0.190626 -0.00215285 0.0
0.191087 -0.000793935 0.0
0.191361 0.000986981 0.0
0.182837 0.00260606 0.0
0.186801 0.00345655 0.0
0.189733 0.00194135 0.0
0.188612 0.00336553 0.0
0.184979 0.00341544 0.0
0 0 0.0
0.101029 -0.000165865 0.0
0.159078 -0.00067897 0.0
0.185282 -0.00237701 0.0
0.180165 -0.00144659 0.0
0.156469 0.000524283 0.0
0.177377 0.00137513 0.0
0 0 0.0
0.0993808 3.97517e-05 0.0
0.187762 -0.00333856 0.0
0.186906 -0.00286013 0.0
0.189353 -0.00271684 0.0
0.188541 -0.00297646 0.0
0.189776 -0.00191751 0.0
0.189831 -0.000931228 0.0
0.18949 7.73688e-05 0.0
0.183616 0.00151509 0.0
0.188795 0.000957782 0.0
0.186713 0.00222387 0.0
0.187815 0.00158716 0.0
0.185476 0.00177804 0.0
0 0 0.0
0.159721 -0.000559574 0.0
0.101604 -0.000125439 0.0
0.1861 -0.00177019 0.0
0.180919 -0.00117161 0.0
0.156973 0.000238886 0.0
0.17822 0.000726521 0.0
0 0 0.0
0.0992522 3.77355e-05 0.0
0.187321 -0.00227031 0.0
0.187856 -0.00262814 0.0
0.188807 -0.00228292 0.0
0.189022 -0.00175112 0.0
0.188334 -0.00244938 0.0
0.188988 -0.00108634 0.0
0.188693 -0.000396978 0.0
0.188148 0.00022304 0.0
0.188618 -0.00147657 0.0
0.184124 0.000746069 0.0
0.187426 0.000672705 0.0
0.186596 0.000897731 0.0
0.185645 0.00107488 0.0
0 0 0.0
0.160208 -0.000528424 0.0
0.101849 -0.000188154 0.0
0.186538 -0.00155745 0.0
0.181494 -0.00103665 0.0
0.15726 1.21189e-05 0.0
0.178655 0.00033072 0.0
0 0 0.0
0.09935 -4.4781e-05 0.0
0.18767 -0.00193469 0.0
0.187977 -0.00221424 0.0
0.188449 -0.00205767 0.0
0.188236 -0.00217574 0.0
0.188352 -0.0017399 0.0
0.188413 -0.000959757 0.0
0.188023 -0.000461568 0.0
0.18748 -5.04178e-05 0.0
0.188196 -0.00137721 0.0
0.184392 0.000193484 0.0
0.186845 0.000216711 0.0
0.186337 0.000258942 0.0
0.185787 0.000218618 0.0
0 0 0.0
0.160607 -0.00053864 0.0
0.102103 -0.000180053 0.0
0.186986 -0.00142927 0.0
0.181981 -0.000998771 0.0
0.178965 -5.29538e-05 0.0
0.157371 -0.000156533 0.0
0 0 0.0
0.0994375 -0.000120398 0.0
0.187976 -0.00178955 0.0
0.188111 -0.00201913 0.0
0.188072 -0.00184677 0.0
0.18821 -0.00208211 0.0
0.188247 -0.00199992 0.0
0.187892 -0.00099207 0.0
0.187465 -0.000643276 0.0
0.186955 -0.000374728 0.0
0.18786 -0.00160939 0.0
0.184513 -0.000211767 0.0
0.186408 -0.000214034 0.0
0.185784 -0.000278847 0.0
0 0 0.0
0.102235 -0.000199697 0.0
0.161055 -0.000577635 0.0
0.182404 -0.00101817 0.0
0.188264 -0.00178577 0.0
0.187367 -0.00141886 0.0
0.179041 -0.000304697 0.0
0.157319 -0.000252827 0.0
0.099149 -9.15296e-05 0.0
0 0 0.0
0.188233 -0.00211443 0.0
0.18827 -0.00199198 0.0
0.187933 -0.00199018 0.0
0.18813 -0.00207517 0.0
0.186726 -0.000850015 0.0
0.18755 -0.00133818 0.0
0.18716 -0.00107412 0.0
0.187629 -0.00188137 0.0
0.185719 -0.000674783 0.0
0.18448 -0.000586862 0.0
0.186223 -0.000808543 0.0
0 0 0.0
0.102735 -0.000219322 0.0
0.161508 -0.000647042 0.0
0.182803 -0.00108522 0.0
0.18849 -0.0018573 0.0
0.187855 -0.00154553 0.0
0.178955 -0.000504661 0.0
0.157155 -0.000350635 0.0
0.0989171 -0.000126066 0.0
0 0 0.0
0.178917 -0.000682982 0.0
0.188281 -0.00221722 0.0
0.188499 -0.00215367 0.0
0.188071 -0.00235411 0.0
0.187832 -0.00217625 0.0
0.18644 -0.00139716 0.0
0.186915 -0.00146584 0.0
0.187294 -0.00168426 0.0
0.187452 -0.00219983 0.0
0.185596 -0.00101283 0.0
0.184389 -0.000849964 0.0
0.186045 -0.0011964 0.0
0 0 0.0
0.103151 -0.000222119 0.0
0.162035 -0.000755911 0.0
0.183255 -0.00124222 0.0
0.188792 -0.00203722 0.0
0.188253 -0.00173949 0.0
0.0985635 -0.000144305 0.0
0.156992 -0.000439829 0.0
0 0 0.0
0.178643 -0.000816742 0.0
0.188379 -0.00246358 0.0
0.188713 -0.00240038 0.0
0.188083 -0.00266458 0.0
0.187739 -0.00249008 0.0
0.186254 -0.0017169 0.0
0.186697 -0.0018467 0.0
0.187313 -0.00257413 0.0
0.186999 -0.00221519 0.0
0.18544 -0.00124303 0.0
0.184189 -0.00109449 0.0
0.185837 -0.001552 0.0
0 0 0.0
0.103715 -0.000275249 0.0
0.162512 -0.000909688 0.0
0.183788 -0.00148065 0.0
0.189195 -0.00240005 0.0
0.188947 -0.002755 0.0
0.188685 -0.00202486 0.0
0.0984201 -0.000186565 0.0
0.156611 -0.00053751 0.0
0 0 0.0
0.178358 -0.000977178 0.0
0.188546 -0.00293512 0.0
0.188109 -0.00298493 0.0
0.18768 -0.00288162 0.0
0.187213 -0.00289828 0.0
0.186062 -0.0020318 0.0
0.18647 -0.00224946 0.0
0.186812 -0.00262629 0.0
0.183969 -0.00133486 0.0
0.185203 -0.00154682 0.0
0.185583 -0.00190327 0.0
0 0 0.0
0.104223 -0.000421229 0.0
0.163273 -0.00110421 0.0
0.184412 -0.00178877 0.0
0.189483 -0.00270567 0.0
0.189202 -0.00319559 0.0
0.189168 -0.00238437 0.0
0.0981052 -0.000253406 0.0
0.156265 -0.000628762 0.0
0 0 0.0
0.183646 -0.00152119 0.0
0.155735 -0.000713641 0.0
0.177848 -0.00117002 0.0
0.188703 -0.00343885 0.0
0.18814 -0.00334702 0.0
0.187608 -0.00359247 0.0
0.187123 -0.00325474 0.0
0.186668 -0.00298325 0.0
0.185805 -0.00242567 0.0
0.186151 -0.00285714 0.0
0.184813 -0.00192387 0.0
0.185338 -0.00221991 0.0
0.188854 -0.00391161 0.0
0 0 0.0
0.104929 -0.000502217 0.0
0.185159 -0.00215937 0.0
0.164107 -0.00137705 0.0
0.189507 -0.00377825 0.0
0.189982 -0.00333415 0.0
0.189683 -0.0028524 0.0
0.0977939 -0.000285618 0.0
0 0 0.0
0.184547 -0.00217155 0.0
0.183272 -0.00176982 0.0
0.177526 -0.00135613 0.0
0.0971033 -0.00024696 0.0
0.155366 -0.000822153 0.0
0.188202 -0.00392114 0.0
0.187565 -0.00405729 0.0
0.186977 -0.00380462 0.0
0.186862 -0.00428281 0.0
0.186503 -0.00337203 0.0
0.185495 -0.00286022 0.0
0.185863 -0.0033507 0.0
0.185041 -0.00253821 0.0
0.188983 -0.00447074 0.0
0.105672 -0.00063149 0.0
0 0 0.0
0.185742 -0.00253731 0.0
0.165 -0.00168338 0.0
0.189825 -0.00448404 0.0
0.190339 -0.00381841 0.0
0.190311 -0.00343323 0.0
0 0 0.0
0.184109 -0.00250341 0.0
0.182652 -0.00208732 0.0
0.176954 -0.00150652 0.0
0.096724 -0.000283065 0.0
0.154697 -0.000925761 0.0
0.188265 -0.00491525 0.0
0.187522 -0.0045754 0.0
0.186714 -0.00480316 0.0
0.186163 -0.00419836 0.0
0.185146 -0.0033271 0.0
0.185551 -0.00389885 0.0
0.184518 -0.00308308 0.0
0.189192 -0.00529899 0.0
0 0 0.0
0.106902 -0.000748531 0.0
0.186628 -0.00309739 0.0
0.166064 -0.0020325 0.0
0.19099 -0.00415049 0.0
0.190182 -0.00535575 0.0
0.190985 -0.0047787 0.0
0 0 0.0
0 0 0.0
0.183594 -0.00287904 0.0
0.182157 -0.0023874 0.0
0.176404 -0.00169825 0.0
0.154021 -0.00102716 0.0
0.096202 -0.000354913 0.0
0.188293 -0.00579035 0.0
0.187418 -0.005368 0.0
0.18525 -0.00438199 0.0
0.186486 -0.00559334 0.0
0.185847 -0.00488873 0.0
0.184722 -0.00385246 0.0
0.184011 -0.00354267 0.0
0.18829 -0.00661359 0.0
0.189349 -0.00629581 0.0
0.108358 -0.000898356 0.0
0.167316 -0.00246629 0.0
0.187689 -0.003805 0.0
0.191685 -0.00485357 0.0
0.190568 -0.00639702 0.0
0.191419 -0.00554955 0.0
0 0 0.0
0 0 0.0
0.181571 -0.00263021 0.0
0.182817 -0.00337698 0.0
0.153262 -0.00113635 0.0
0.175517 -0.00194471 0.0
0.0955813 -0.000388945 0.0
0.187213 -0.00671058 0.0
0.18617 -0.00651271 0.0
0.183438 -0.00405048 0.0
0.184897 -0.00490611 0.0
0.185567 -0.00548725 0.0
0.184033 -0.00464459 0.0
0.188262 -0.00751236 0.0
0.189591 -0.00795536 0.0
0.190953 -0.00769151 0.0
0.109938 -0.00118879 0.0
0.169066 -0.00306124 0.0
0.189152 -0.00490748 0.0
0.192586 -0.00588977 0.0
0.192222 -0.00706415 0.0
0 0 0.0
0 0 0.0
0.180662 -0.00303017 0.0
0.182106 -0.00383191 0.0
0.152375 -0.00129143 0.0
0.174705 -0.0021852 0.0
0.0948378 -0.000435886 0.0
0.185231 -0.00614207 0.0
0.185772 -0.007538 0.0
0.186934 -0.0078689 0.0
0.182759 -0.00460044 0.0
0.184387 -0.00564245 0.0
0.183402 -0.00532189 0.0
0.181282 -0.00431762 0.0
0.188062 -0.00942592 0.0
0 0 0.0
0.189632 -0.00951526 0.0
0.192924 -0.00860148 0.0
0.191305 -0.00922132 0.0
0.112016 -0.00150681 0.0
0.190585 -0.00593373 0.0
0.171462 -0.00402837 0.0
0.193843 -0.00762158 0.0
0 0 0.0
0 0 0.0
0 0 0.0
0 0 0.0
0 0 0.0
0.0940765 -0.000476164 0.0
0.173886 -0.00244923 0.0
0.179806 -0.00340093 0.0
0.151556 -0.00141544 0.0
0.184701 -0.00706026 0.0
0.185239 -0.00871121 0.0
0.186581 -0.00918029 0.0
0.182796 -0.00590013 0.0
0.181955 -0.00520198 0.0
0.183478 -0.00680333 0.0
0.181189 -0.00574409 0.0
0.180553 -0.00469421 0.0
0.187725 -0.0110936 0.0
0.189596 -0.0112663 0.0
0 0 0.0
-0.000489417 0.000249873 0.0
0 0 0.0
-0.00046543 0.00487711 0.0
0.19162 -0.011124 0.0
0.193497 -0.00999827 0.0
0.114871 -0.0019978 0.0
0.192342 -0.0074387 0.0
0.174112 -0.00526934 0.0
0.195133 -0.00955054 0.0
0 0 0.0
0 0 0.0
0 0 0.0
-0.000342857 0.00368996 0.0
-0.000331229 0.00133311 0.0
-0.00102054 0.0010737 0.0
0 0 0.0
0.0932382 -0.000510504 0.0
0.172925 -0.00266548 0.0
0.178817 -0.00378825 0.0
0.150337 -0.00156923 0.0
0.184052 -0.00809918 0.0
0.184552 -0.0100213 0.0
0.186055 -0.0106588 0.0
0.182098 -0.00653535 0.0
0.182836 -0.00755488 0.0
0.180311 -0.00630539 0.0
0.17921 -0.005359 0.0
0.187236 -0.0129596 0.0
0.188857 -0.0131424 0.0
0.19059 -0.0130949 0.0
0 0 0.0
-0.00135027 0.000361275 0.0
0 0 0.0
0 0 0.0
-0.00153204 0.00684053 0.0
-0.00128049 0.00523612 0.0
0.192349 -0.01293 0.0
0.19418 -0.0123124 0.0
0.177011 -0.00677431 0.0
0.118336 -0.00270176 0.0
0.194461 -0.00950313 0.0
0.196399 -0.0120195 0.0
0 0 0.0
-0.000840979 0.0030343 0.0
-0.000997521 0.00408259 0.0
-0.00121627 0.00214315 0.0
-0.00206623 0.00113534 0.0
0 0 0.0
0.0923109 -0.00054849 0.0
0.171777 -0.00292168 0.0
0.177675 -0.00417551 0.0
0.149144 -0.00170156 0.0
0.183239 -0.00923588 0.0
0.183673 -0.0114476 0.0
0.185321 -0.0123195 0.0
0.180762 -0.00765372 0.0
0.182096 -0.00833451 0.0
0.179129 -0.00700716 0.0
0.176476 -0.00458698 0.0
0.177979 -0.00591317 0.0
0.186634 -0.0146277 0.0
0.189077 -0.0149634 0.0
0.19176 -0.0153203 0.0
0 0 0.0
-0.00229214 0.000276028 0.0
0 0 0.0
0 0 0.0
0 0 0.0
0 0 0.0
-0.0019389 0.00358194 0.0
-0.000785214 0.00792753 0.0
-0.00188232 0.00841673 0.0
-0.00316946 0.0062394 0.0
-0.00228797 0.00507273 0.0
0 0 0.0
-0.00122836 0.0183321 0.0
0.194775 -0.0160158 0.0
0.197427 -0.0144834 0.0
0 0 0.0
0.12349 -0.00389507 0.0
0.181087 -0.00885808 0.0
0.197356 -0.0130575 0.0
0 0 0.0
0 0 0.0
-0.00177275 0.00297141 0.0
-0.00215658 0.00185053 0.0
-0.00280393 0.000685964 0.0
0 0 0.0
0.0912715 -0.000592123 0.0
0.170307 -0.00322128 0.0
0.147809 -0.00183408 0.0
0.175307 -0.00489466 0.0
0.18224 -0.0104665 0.0
0.182854 -0.0126007 0.0
0.184346 -0.0141648 0.0
0.179767 -0.00836941 0.0
0.181009 -0.00937085 0.0
0.177799 -0.00771977 0.0
0.176919 -0.00631913 0.0
0.190041 -0.0169742 0.0
0.185816 -0.0164478 0.0
0.188053 -0.0185743 0.0
0.191273 -0.0193872 0.0
0.194957 -0.0199194 0.0
0 0 0.0
-0.00263763 0.000102208 0.0
-0.00135615 0.0158827 0.0
-0.0038195 0.0179502 0.0
-0.00104742 0.0103725 0.0
-0.00252259 0.00256315 0.0
-0.00222932 0.000308347 0.0
-0.00298443 0.0114166 0.0
-0.00442228 0.00786171 0.0
-0.00417456 0.00316834 0.0