# vtk DataFile Version 3.0
Mesh NS-CD Problem
ASCII
DATASET UNSTRUCTURED_GRID
POINTS 10839 float
-2 0.3 0.0
-2 0.4 0.0
-2 0.35 0.0
-2 0.45 0.0
-2 0.5 0.0
-2 0.55 0.0
-2 0 0.0
-2 0.05 0.0
-2 0.85 0.0
-2 0.9 0.0
-2 0.1 0.0
-2 0.15 0.0
-2 0.25 0.0
-2 0.2 0.0
-1.96653 0.266667 0.0
-1.96524 0.415385 0.0
-1.96485 0.315 0.0
-1.96348 0.363636 0.0
-1.96414 0.464286 0.0
-2 0.6 0.0
-1.96538 0.584615 0.0
-1.96538 0.538462 0.0
-1.94979 0 0.0
-1.96653 0.0666666 0.0
-1.93306 0.0333333 0.0
-2 0.8 0.0
-2 0.75 0.0
-2 0.7 0.0
-2 0.65 0.0
-1.96249 0.7375 0.0
-1.96666 0.833333 0.0
-2 1 0.0
-2 0.95 0.0
-1.96249 0.8875 0.0
-1.96666 0.933333 0.0
-1.96234 0.1125 0.0
-1.96653 0.166667 0.0
-1.93724 0.225 0.0
-1.92971 0.28 0.0
-1.93048 0.380769 0.0
-1.93048 0.423077 0.0
-1.89958 0.3375 0.0
-1.9292 0.484203 0.0
-1.92117 0.530907 0.0
-1.96363 0.636364 0.0
-1.93076 0.576923 0.0
-1.89958 0 0.0
-1.88703 0.0375 0.0
-1.90963 0.08 0.0
-1.86611 0.0666666 0.0
-1.93749 0.775 0.0
-1.93635 0.672727 0.0
-1.92999 0.72 0.0
-1.93332 0.866667 0.0
-1.92856 0.821429 0.0
-1.94999 1 0.0
-1.92499 0.9625 0.0
-1.92499 0.925 0.0
-1.89998 0.9 0.0
-1.89958 0.125 0.0
-1.92827 0.178571 0.0
-1.89958 0.233333 0.0
-1.89045 0.290909 0.0
-1.86096 0.311538 0.0
-1.89241 0.392857 0.0
-1.89334 0.448489 0.0
-1.85655 0.357143 0.0
-1.89614 0.653846 0.0
-1.89427 0.504121 0.0
-1.8952 0.559753 0.0
-1.89614 0.615385 0.0
-1.84937 0 0.0
-1.83264 0.0333333 0.0
-1.85655 0.107143 0.0
-1.81172 0.075 0.0
-1.89998 0.766667 0.0
-1.89089 0.709091 0.0
-1.87498 0.85 0.0
-1.85998 0.79 0.0
-1.88748 0.8125 0.0
-1.89998 1 0.0
-1.88748 0.9625 0.0
-1.86664 0.933333 0.0
-1.85712 0.892857 0.0
-1.87448 0.15 0.0
-1.86611 0.194444 0.0
-1.83264 0.133333 0.0
-1.83264 0.2625 0.0
-1.82068 0.321429 0.0
-1.85664 0.404762 0.0
-1.85674 0.452381 0.0
-1.85683 0.5 0.0
-1.81184 0.375 0.0
-1.85712 0.642857 0.0
-1.85693 0.547619 0.0
-1.85702 0.595238 0.0
-1.79917 0 0.0
-1.78482 0.0357143 0.0
-1.79917 0.116667 0.0
-1.76569 0.0666666 0.0
-1.85452 0.745455 0.0
-1.82689 0.692308 0.0
-1.81815 0.781818 0.0
-1.82497 0.825 0.0
-1.84997 1 0.0
-1.8333 0.958333 0.0
-1.81247 0.8875 0.0
-1.81247 0.925 0.0
-1.81742 0.218182 0.0
-1.82427 0.175 0.0
-1.77634 0.145455 0.0
-1.79144 0.242308 0.0
-1.78482 0.285714 0.0
-1.77469 0.332653 0.0
-1.81215 0.529762 0.0
-1.81194 0.422619 0.0
-1.81203 0.470238 0.0
-1.76714 0.392857 0.0
-1.81234 0.625 0.0
-1.79732 0.571429 0.0
-1.74896 0 0.0
-1.73222 0.0333333 0.0
-1.75398 0.105 0.0
-1.71883 0.07 0.0
-1.79227 0.730769 0.0
-1.78007 0.679121 0.0
-1.75765 0.769231 0.0
-1.78178 0.818182 0.0
-1.78996 0.86 0.0
-1.79996 1 0.0
-1.78568 0.964286 0.0
-1.76663 0.922222 0.0
-1.76569 0.1875 0.0
-1.73222 0.15 0.0
-1.74896 0.25 0.0
-1.73714 0.304762 0.0
-1.76743 0.537202 0.0
-1.72869 0.343878 0.0
-1.76732 0.485119 0.0
-1.76723 0.440476 0.0
-1.72243 0.410714 0.0
-1.76757 0.607143 0.0
-1.69875 0 0.0
-1.68369 0.035 0.0
-1.69875 0.1125 0.0
-1.66528 0.075 0.0
-1.74341 0.708974 0.0
-1.73324 0.665934 0.0
-1.70441 0.74478 0.0
-1.71423 0.785714 0.0
-1.72303 0.826923 0.0
-1.74541 0.854545 0.0
-1.74541 0.890909 0.0
-1.74996 1 0.0
-1.73745 0.9625 0.0
-1.71359 0.927273 0.0
-1.68716 0.153846 0.0
-1.7131 0.214286 0.0
-1.70725 0.275 0.0
-1.69712 0.321939 0.0
-1.72279 0.589286 0.0
-1.72261 0.5 0.0
-1.7227 0.544643 0.0
-1.6827 0.355102 0.0
-1.67773 0.428571 0.0
-1.70763 0.464286 0.0
-1.70369 0.62449 0.0
-1.64854 0 0.0
-1.63181 0.0375 0.0
-1.64137 0.142857 0.0
-1.61764 0.0769231 0.0
-1.69458 0.703846 0.0
-1.67471 0.657437 0.0
-1.66143 0.727637 0.0
-1.67125 0.768571 0.0
-1.67851 0.821429 0.0
-1.68841 0.861538 0.0
-1.70904 0.890909 0.0
-1.69995 1 0.0
-1.68176 0.963636 0.0
-1.67267 0.927273 0.0
-1.65427 0.187143 0.0
-1.66718 0.231429 0.0
-1.66554 0.3 0.0
-1.67802 0.571429 0.0
-1.67792 0.523809 0.0
-1.6367 0.366327 0.0
-1.63682 0.423469 0.0
-1.62568 0.502976 0.0
-1.6629 0.470238 0.0
-1.65254 0.618367 0.0
-1.6059 0.307143 0.0
-1.59833 0 0.0
-1.58288 0.0384615 0.0
-1.60563 0.169643 0.0
-1.58179 0.112271 0.0
-1.56964 0.0714286 0.0
-1.64574 0.690385 0.0
-1.62827 0.751429 0.0
-1.63371 0.791071 0.0
-1.64279 0.857143 0.0
-1.65378 0.896154 0.0
-1.64994 1 0.0
-1.6363 0.963636 0.0
-1.61916 0.930769 0.0
-1.61345 0.209107 0.0
-1.62126 0.248571 0.0
-1.56989 0.196429 0.0
-1.63324 0.553571 0.0
-1.58846 0.535714 0.0
-1.59408 0.361905 0.0
-1.59161 0.402211 0.0
-1.58832 0.464286 0.0
-1.61504 0.598581 0.0
-1.59683 0.64359 0.0
-1.57899 0.274107 0.0
-1.56176 0.322381 0.0
-1.54812 0 0.0
-1.53378 0.0357143 0.0
-1.54593 0.147619 0.0
-1.53385 0.0732143 0.0
-1.53393 0.110714 0.0
-1.58522 0.704286 0.0
-1.58709 0.745 0.0
-1.58896 0.785714 0.0
-1.60695 0.830357 0.0
-1.60707 0.892857 0.0
-1.59993 1 0.0
-1.58454 0.965385 0.0
-1.57135 0.928571 0.0
-1.55209 0.241071 0.0
-1.5291 0.198214 0.0
-1.56936 0.570918 0.0
-1.54369 0.517857 0.0
-1.5464 0.380952 0.0
-1.54564 0.427721 0.0
-1.54488 0.47449 0.0
-1.55026 0.606122 0.0
-1.54222 0.677143 0.0
-1.52943 0.282857 0.0
-1.52143 0.33619 0.0
-1.49792 0 0.0
-1.49802 0.05 0.0
-1.49822 0.15 0.0
-1.49312 0.1 0.0
-1.5423 0.717143 0.0
-1.54419 0.767857 0.0
-1.54727 0.819048 0.0
-1.57122 0.861905 0.0
-1.53553 0.914286 0.0
-1.54992 1 0.0
-1.53563 0.964286 0.0
-1.49842 0.25 0.0
-1.48831 0.2 0.0
-1.5214 0.558929 0.0
-1.49891 0.5 0.0
-1.49871 0.4 0.0
-1.47631 0.45 0.0
-1.49911 0.6 0.0
-1.49921 0.65 0.0
-1.49931 0.7 0.0
-1.48111 0.35 0.0
-1.48351 0.3 0.0
-1.44771 0 0.0
-1.44782 0.05 0.0
-1.44804 0.15 0.0
-1.44793 0.1 0.0
-1.49941 0.75 0.0
-1.49951 0.8 0.0
-1.49981 0.95 0.0
-1.49961 0.85 0.0
-1.49971 0.9 0.0
-1.49991 1 0.0
-1.44826 0.25 0.0
-1.43815 0.2 0.0
-1.47151 0.55 0.0
-1.44881 0.5 0.0
-1.44859 0.4 0.0
-1.42619 0.45 0.0
-1.44913 0.65 0.0
-1.44902 0.6 0.0
-1.44935 0.75 0.0
-1.44924 0.7 0.0
-1.43972 0.35 0.0
-1.43336 0.3 0.0
-1.3975 0 0.0
-1.39762 0.05 0.0
-1.39786 0.15 0.0
-1.39274 0.1 0.0
-1.44957 0.85 0.0
-1.44946 0.8 0.0
-1.4523 0.95 0.0
-1.44968 0.9 0.0
-1.4499 1 0.0
-1.3981 0.25 0.0
-1.38798 0.2 0.0
-1.42141 0.55 0.0
-1.3987 0.5 0.0
-1.39834 0.35 0.0
-1.37845 0.4 0.0
-1.37607 0.45 0.0
-1.40784 0.65 0.0
-1.39894 0.6 0.0
-1.41185 0.75 0.0
-1.39918 0.7 0.0
-1.38322 0.3 0.0
-1.34729 0 0.0
-1.34492 0.05 0.0
-1.34018 0.15 0.0
-1.34255 0.1 0.0
-1.40707 0.85 0.0
-1.39941 0.8 0.0
-1.39977 0.95 0.0
-1.39965 0.9 0.0
-1.39989 1 0.0
-1.33781 0.2 0.0
-1.33544 0.25 0.0
-1.37131 0.55 0.0
-1.34859 0.5 0.0
-1.33833 0.4 0.0
-1.3307 0.35 0.0
-1.32595 0.45 0.0
-1.34885 0.6 0.0
-1.36655 0.65 0.0
-1.36179 0.75 0.0
-1.34911 0.7 0.0
-1.33307 0.3 0.0
-1.29708 0 0.0
-1.29722 0.05 0.0
-1.2975 0.15 0.0
-1.29236 0.1 0.0
-1.35703 0.85 0.0
-1.34937 0.8 0.0
-1.34988 1 0.0
-1.34962 0.9 0.0
-1.35226 0.95 0.0
-1.28528 0.25 0.0
-1.28764 0.2 0.0
-1.28931 0.35 0.0
-1.32121 0.55 0.0
-1.29848 0.5 0.0
-1.28709 0.45 0.0
-1.2982 0.4 0.0
-1.29876 0.6 0.0
-1.31647 0.65 0.0
-1.29918 0.75 0.0
-1.29904 0.7 0.0
-1.28292 0.3 0.0
-1.24687 0 0.0
-1.24702 0.05 0.0
-1.24717 0.1 0.0
-1.24732 0.15 0.0
-1.29946 0.85 0.0
-1.29932 0.8 0.0
-1.29987 1 0.0
-1.29974 0.95 0.0
-1.30462 0.9 0.0
-1.24762 0.25 0.0
-1.23747 0.2 0.0
-1.24792 0.35 0.0
-1.22807 0.4 0.0
-1.27111 0.55 0.0
-1.24837 0.5 0.0
-1.24822 0.45 0.0
-1.24867 0.6 0.0
-1.26639 0.65 0.0
-1.26167 0.75 0.0
-1.24897 0.7 0.0
-1.23277 0.3 0.0
-1.19667 0 0.0
-1.19683 0.05 0.0
-1.18964 0.15 0.0
-1.19198 0.1 0.0
-1.25695 0.85 0.0
-1.24927 0.8 0.0
-1.25223 0.95 0.0
-1.24987 1 0.0
-1.24957 0.9 0.0
-1.1873 0.2 0.0
-1.18496 0.25 0.0
-1.18028 0.35 0.0
-1.17794 0.4 0.0
-1.1981 0.45 0.0
-1.19842 0.55 0.0
-1.19826 0.5 0.0
-1.19858 0.6 0.0
-1.19874 0.65 0.0
-1.19906 0.75 0.0
-1.1989 0.7 0.0
-1.18262 0.3 0.0
-1.14646 0 0.0
-1.14663 0.05 0.0
-1.1418 0.1 0.0
-1.13713 0.2 0.0
-1.14697 0.15 0.0
-1.20691 0.85 0.0
-1.20926 0.8 0.0
-1.20221 0.95 0.0
-1.19986 1 0.0
-1.20456 0.9 0.0
-1.13997 0.3 0.0
-1.14731 0.25 0.0
-1.13781 0.4 0.0
-1.13014 0.35 0.0
-1.12548 0.45 0.0
-1.14815 0.5 0.0
-1.15962 0.55 0.0
-1.14849 0.6 0.0
-1.15745 0.65 0.0
-1.16155 0.75 0.0
-1.14917 0.8 0.0
-1.14883 0.7 0.0
-1.09625 0 0.0
-1.09661 0.1 0.0
-1.09393 0.05 0.0
-1.09697 0.2 0.0
-1.08929 0.15 0.0
-1.15687 0.85 0.0
-1.14985 1 0.0
-1.15219 0.95 0.0
-1.14951 0.9 0.0
-1.09733 0.3 0.0
-1.08465 0.25 0.0
-1.09769 0.4 0.0
-1.08 0.35 0.0
-1.08661 0.45 0.0
-1.09804 0.5 0.0
-1.12082 0.55 0.0
-1.10916 0.8 0.0
-1.10629 0.7 0.0
-1.0984 0.6 0.0
-1.11616 0.65 0.0
-1.11149 0.75 0.0
-1.04604 0 0.0
-1.04623 0.05 0.0
-1.04642 0.1 0.0
-1.0468 0.2 0.0
-1.03911 0.15 0.0
-1.09948 0.9 0.0
-1.0993 0.85 0.0
-1.09984 1 0.0
-1.09966 0.95 0.0
-1.04718 0.3 0.0
-1.03449 0.25 0.0
-1.04756 0.4 0.0
-1.02986 0.35 0.0
-1.04775 0.45 0.0
-1.04794 0.5 0.0
-1.04813 0.55 0.0
-1.05911 0.8 0.0
-1.04831 0.6 0.0
-1.06376 0.7 0.0
-1.0485 0.65 0.0
-1.04888 0.75 0.0
-0.995833 0 0.0
-0.991231 0.1 0.0
-0.996033 0.05 0.0
-0.986629 0.2 0.0
-0.98893 0.15 0.0
-1.05447 0.9 0.0
-1.04926 0.85 0.0
-1.04983 1 0.0
-1.04964 0.95 0.0
-0.984328 0.25 0.0
-0.99703 0.3 0.0
-0.997429 0.4 0.0
-0.997628 0.45 0.0
-0.979726 0.35 0.0
-0.997827 0.5 0.0
-0.998027 0.55 0.0
-0.998226 0.6 0.0
-0.961416 0.475 0.0
-1.00907 0.8 0.0
-0.998426 0.65 0.0
-0.998625 0.7 0.0
-1.01138 0.75 0.0
-0.945625 0 0.0
-0.946044 0.1 0.0
-0.943334 0.05 0.0
-0.946463 0.2 0.0
-0.938752 0.15 0.0
-1.00444 0.9 0.0
-1.00675 0.85 0.0
-0.999821 1 0.0
-1.00213 0.95 0.0
-0.93417 0.25 0.0
-0.946881 0.3 0.0
-0.9473 0.4 0.0
-0.929588 0.35 0.0
-0.925005 0.45 0.0
-0.960371 0.525 0.0
-0.959325 0.575 0.0
-0.958279 0.625 0.0
-0.922714 0.5 0.0
-0.959017 0.8 0.0
-0.957233 0.675 0.0
-0.952999 0.7125 0.0
-0.948766 0.75 0.0
-0.895417 0 0.0
-0.895855 0.1 0.0
-0.893136 0.05 0.0
-0.896294 0.2 0.0
-0.888573 0.15 0.0
-0.949184 0.85 0.0
-0.954415 0.9 0.0
-0.949812 1 0.0
-0.949603 0.95 0.0
-0.884011 0.25 0.0
-0.896733 0.3 0.0
-0.874887 0.45 0.0
-0.879449 0.35 0.0
-0.897171 0.4 0.0
-0.920423 0.55 0.0
-0.918132 0.6 0.0
-0.915841 0.65 0.0
-0.872606 0.5 0.0
-0.908968 0.8 0.0
-0.91355 0.7 0.0
-0.898707 0.75 0.0
-0.845208 0 0.0
-0.845438 0.05 0.0
-0.845667 0.1 0.0
-0.845896 0.15 0.0
-0.833853 0.25 0.0
-0.846126 0.2 0.0
-0.899146 0.85 0.0
-0.904386 0.9 0.0
-0.899584 0.95 0.0
-0.899804 1 0.0
-0.838062 0.35 0.0
[...]
POINT_DATA 10839
VECTORS Velocity float
0.21 0 0.0
0.24 0 0.0
0.2275 0 0.0
0.2475 0 0.0
0.25 0 0.0
0.2475 0 0.0
0 0 0.0
0.0475 0 0.0
0.1275 0 0.0
0.09 0 0.0
0.09 0 0.0
0.1275 0 0.0
0.1875 0 0.0
0.16 0 0.0
0.195557 -2.4129e-05 0.0
0.242841 -3.29406e-05 0.0
0.215776 -2.87304e-05 0.0
0.231406 -3.23962e-05 0.0
0.248725 -3.50756e-05 0.0
0.24 0 0.0
0.24284 -3.28663e-05 0.0
0.24852 -3.37783e-05 0.0
0 0 0.0
0.0622239 -4.19113e-06 0.0
0.032227 -2.76994e-06 0.0
0.16 0 0.0
0.1875 0 0.0
0.21 0 0.0
0.2275 0 0.0
0.193592 -2.70843e-05 0.0
0.138887 -1.50205e-05 0.0
0 0 0.0
0.0475 0 0.0
0.0998415 -1.04234e-05 0.0
0.0622206 -4.23804e-06 0.0
0.0998462 -1.08924e-05 0.0
0.138891 -1.51555e-05 0.0
0.17438 -3.80313e-05 0.0
0.201606 -5.21278e-05 0.0
0.235787 -6.36804e-05 0.0
0.244085 -6.66415e-05 0.0
0.223602 -8.53898e-05 0.0
0.249751 -6.96325e-05 0.0
0.249044 -7.76005e-05 0.0
0.231404 -3.29228e-05 0.0
0.244081 -6.58505e-05 0.0
0 0 0.0
0.0361081 -5.36657e-06 0.0
0.0736127 -1.5014e-05 0.0
0.0622492 -1.64624e-05 0.0
0.17437 -3.74688e-05 0.0
0.220162 -5.21157e-05 0.0
0.201594 -5.22037e-05 0.0
0.115548 -2.2439e-05 0.0
0.146676 -3.48e-05 0.0
0 0 0.0
0.0360874 -3.61149e-06 0.0
0.0693661 -1.17303e-05 0.0
0.0899834 -2.33114e-05 0.0
0.109391 -3.15553e-05 0.0
0.146692 -3.41295e-05 0.0
0.178902 -6.3826e-05 0.0
0.206293 -8.3513e-05 0.0
0.214501 -0.000112621 0.0
0.238527 -9.98877e-05 0.0
0.24735 -0.000104027 0.0
0.229607 -0.000127207 0.0
0.226323 -8.97285e-05 0.0
0.249983 -0.000104544 0.0
0.246426 -0.000101702 0.0
0.23668 -9.57385e-05 0.0
0 0 0.0
0.0322506 -6.073e-06 0.0
0.0956967 -3.58612e-05 0.0
0.0694295 -2.70325e-05 0.0
0.178876 -6.28503e-05 0.0
0.206269 -8.41418e-05 0.0
0.127476 -4.84293e-05 0.0
0.165873 -7.95857e-05 0.0
0.152325 -5.69398e-05 0.0
0 0 0.0
0.0360796 -5.19753e-06 0.0
0.0621957 -1.62863e-05 0.0
0.0956298 -3.65344e-05 0.0
0.127525 -4.89006e-05 0.0
0.156661 -7.11016e-05 0.0
0.115601 -5.61837e-05 0.0
0.193626 -0.000117441 0.0
0.218141 -0.000148711 0.0
0.24094 -0.000135563 0.0
0.247737 -0.000140606 0.0
0.25 -0.000142146 0.0
0.234398 -0.000172232 0.0
0.229576 -0.000125446 0.0
0.247727 -0.000140296 0.0
0.240919 -0.000135324 0.0
0 0 0.0
0.0344873 -8.42159e-06 0.0
0.103121 -5.5234e-05 0.0
0.0623033 -2.7401e-05 0.0
0.189727 -9.9744e-05 0.0
0.212988 -0.000139474 0.0
0.170534 -0.000108065 0.0
0.144329 -8.0154e-05 0.0
0 0 0.0
0.039898 -8.96259e-06 0.0
0.099786 -5.01771e-05 0.0
0.069321 -2.65843e-05 0.0
0.170625 -0.000108197 0.0
0.144421 -8.18897e-05 0.0
0.124378 -8.31015e-05 0.0
0.18365 -0.000136897 0.0
0.204132 -0.000163987 0.0
0.222039 -0.000193178 0.0
0.249109 -0.000186789 0.0
0.244027 -0.000181796 0.0
0.24912 -0.000186797 0.0
0.238551 -0.000219502 0.0
0.234353 -0.000171219 0.0
0.244883 -0.000196956 0.0
0 0 0.0
0.0322919 -8.92753e-06 0.0
0.0940746 -5.8108e-05 0.0
0.0652177 -3.47125e-05 0.0
0.196696 -0.000149729 0.0
0.217871 -0.00018408 0.0
0.177437 -0.000152045 0.0
0.148689 -0.000105963 0.0
0.120329 -7.41094e-05 0.0
0 0 0.0
0.0343908 -8.50161e-06 0.0
0.0716439 -3.48007e-05 0.0
0.152425 -0.000118912 0.0
0.127615 -0.000103325 0.0
0.187579 -0.000169972 0.0
0.211951 -0.000211855 0.0
0.248605 -0.000232097 0.0
0.225686 -0.000240117 0.0
0.249783 -0.000233784 0.0
0.246474 -0.000229834 0.0
0.242065 -0.000269211 0.0
0.23849 -0.000218886 0.0
0 0 0.0
0.0338743 -1.1204e-05 0.0
0.0999938 -7.77518e-05 0.0
0.0695457 -4.62866e-05 0.0
0.20626 -0.000198305 0.0
0.222404 -0.000231276 0.0
0.189974 -0.000206203 0.0
0.168253 -0.000166427 0.0
0.143003 -0.000127562 0.0
0.124193 -9.40237e-05 0.0
0.0970835 -6.30958e-05 0.0
0 0 0.0
0.0360208 -1.08425e-05 0.0
0.0673145 -3.73306e-05 0.0
0.130335 -0.00012503 0.0
0.168483 -0.000167242 0.0
0.199473 -0.000218319 0.0
0.218379 -0.000256347 0.0
0.241992 -0.000269875 0.0
0.25 -0.000281735 0.0
0.247989 -0.000278444 0.0
0.229082 -0.000289383 0.0
0.244938 -0.000320903 0.0
0.248741 -0.000295729 0.0
0.234445 -0.0002766 0.0
0 0 0.0
0.0362327 -1.44634e-05 0.0
0.12266 -0.000128215 0.0
0.0712303 -5.48169e-05 0.0
0.208349 -0.000242831 0.0
0.225125 -0.000289201 0.0
0.198047 -0.000252274 0.0
0.177724 -0.000208789 0.0
0.146524 -0.000153833 0.0
0.119131 -0.000107356 0.0
0.0970504 -7.16422e-05 0.0
0 0 0.0
0.0349387 -1.21504e-05 0.0
0.0672771 -4.207e-05 0.0
0.152302 -0.000175016 0.0
0.178018 -0.000213734 0.0
0.210117 -0.000270526 0.0
0.244858 -0.000320829 0.0
0.24942 -0.000329599 0.0
0.232226 -0.000340761 0.0
0.244198 -0.000365387 0.0
0.249988 -0.000390116 0.0
0.249132 -0.000346407 0.0
0.235912 -0.000331632 0.0
0.212965 -0.000330758 0.0
0 0 0.0
0.0371617 -1.70571e-05 0.0
0.141112 -0.000178685 0.0
0.0999597 -0.000107941 0.0
0.0666011 -5.34533e-05 0.0
0.213628 -0.000295797 0.0
0.186605 -0.000257511 0.0
0.165083 -0.000209468 0.0
0.122239 -0.000128897 0.0
0.0928648 -7.86607e-05 0.0
0 0 0.0
0.0349089 -1.35777e-05 0.0
0.0642256 -4.47091e-05 0.0
0.165599 -0.000223997 0.0
0.186969 -0.000263299 0.0
0.158126 -0.000234519 0.0
0.247091 -0.000375285 0.0
0.248691 -0.00043169 0.0
0.231053 -0.000382931 0.0
0.240527 -0.000408715 0.0
0.248758 -0.000431318 0.0
0.240202 -0.000381821 0.0
0.229255 -0.000375251 0.0
0.199184 -0.000323904 0.0
0.218636 -0.000387306 0.0
0 0 0.0
0.0346495 -1.67435e-05 0.0
0.126173 -0.000173773 0.0
0.06818 -6.04461e-05 0.0
0.0988225 -0.000117629 0.0
0.208081 -0.000338711 0.0
0.189757 -0.00029524 0.0
0.168123 -0.000244981 0.0
0.140617 -0.000177328 0.0
0.0954071 -9.36669e-05 0.0
0 0 0.0
0.0332529 -1.3905e-05 0.0
0.0660545 -5.32745e-05 0.0
0.183226 -0.000306135 0.0
0.159266 -0.000262625 0.0
0.244897 -0.000445204 0.0
0.24966 -0.000488885 0.0
0.235963 -0.000448416 0.0
0.244859 -0.000473994 0.0
0.249378 -0.000487658 0.0
0.238619 -0.000450901 0.0
0.218418 -0.000407548 0.0
0.203107 -0.000378175 0.0
0.223373 -0.000443051 0.0
0 0 0.0
0.0478072 -3.34646e-05 0.0
0.127925 -0.000198259 0.0
0.0904273 -0.000110458 0.0
0.202605 -0.000364303 0.0
0.177963 -0.000299559 0.0
0.147884 -0.000224696 0.0
0.118717 -0.000147193 0.0
0.0780247 -7.86302e-05 0.0
0 0 0.0
0.0342309 -1.6392e-05 0.0
0.187835 -0.000362706 0.0
0.160405 -0.000292364 0.0
0.246451 -0.000509032 0.0
0.25 -0.000548576 0.0
0.240141 -0.000517969 0.0
0.247578 -0.000571176 0.0
0.239858 -0.000517603 0.0
0.22729 -0.000479246 0.0
0.209726 -0.000426336 0.0
0.227726 -0.000503002 0.0
0.210293 -0.000444242 0.0
0 0 0.0
0.047871 -3.73314e-05 0.0
0.128021 -0.00022144 0.0
0.0905103 -0.000121488 0.0
0.187166 -0.000360853 0.0
0.159614 -0.00028278 0.0
0.0471969 -3.27979e-05 0.0
0.127079 -0.000195528 0.0
0.0895857 -0.000108104 0.0
0 0 0.0
0.187912 -0.000407784 0.0
0.160496 -0.000327362 0.0
0.247419 -0.000577747 0.0
0.249999 -0.000618321 0.0
0.240174 -0.000584172 0.0
0.247595 -0.000642337 0.0
0.227242 -0.000539839 0.0
0.239825 -0.0005831 0.0
0.187089 -0.000405578 0.0
0.209663 -0.000479906 0.0
0.227767 -0.000552363 0.0
0.210359 -0.000499535 0.0
0 0 0.0
0.0479414 -4.09457e-05 0.0
0.128128 -0.000246297 0.0
0.0906229 -0.000136282 0.0
0.126983 -0.000219201 0.0
0.159526 -0.000317429 0.0
0.0471372 -3.63733e-05 0.0
0.0894949 -0.000120186 0.0
0 0 0.0
0.187999 -0.000455549 0.0
0.160599 -0.000365048 0.0
0.247401 -0.000648698 0.0
0.249999 -0.000692944 0.0
0.227812 -0.000606075 0.0
0.240226 -0.000683489 0.0
0.247614 -0.000719095 0.0
0.227197 -0.000591219 0.0
0.239788 -0.000653422 0.0
0.187025 -0.000439975 0.0
0.20959 -0.000537079 0.0
0.210433 -0.000558568 0.0
0 0 0.0
0.0480239 -4.55395e-05 0.0
0.128268 -0.00027713 0.0
0.0907377 -0.000150564 0.0
0.126893 -0.000239495 0.0
0.159426 -0.000353573 0.0
0.0470647 -4.03994e-05 0.0
0.0893945 -0.000132696 0.0
0 0 0.0
0.160714 -0.000405049 0.0
0.188123 -0.000519533 0.0
0.247381 -0.000724758 0.0
0.249999 -0.000773058 0.0
0.240261 -0.000746505 0.0
0.227897 -0.000701204 0.0
0.247636 -0.00080051 0.0
0.239746 -0.00072836 0.0
0.227148 -0.000647275 0.0
0.18693 -0.000489542 0.0
0.20951 -0.000597864 0.0
0.210516 -0.000622399 0.0
0 0 0.0
0.048107 -5.02484e-05 0.0
0.128383 -0.000302234 0.0
0.0908644 -0.000166155 0.0
0.126776 -0.000265075 0.0
0.159314 -0.000392622 0.0
0 0 0.0
0.0892823 -0.000146759 0.0
0.0469917 -4.43862e-05 0.0
0.188236 -0.000577978 0.0
0.160842 -0.00044906 0.0
0.227956 -0.000764684 0.0
0.247358 -0.000807242 0.0
0.249998 -0.000859866 0.0
0.247654 -0.000869197 0.0
0.240298 -0.000812401 0.0
0.239699 -0.000809586 0.0
0.227081 -0.000719904 0.0
0.186796 -0.000556404 0.0
0.20942 -0.000664341 0.0
0.210609 -0.000690613 0.0
0 0 0.0
0.0482016 -5.54099e-05 0.0
0.09099 -0.000181103 0.0
0.128531 -0.000333495 0.0
0.126625 -0.00029692 0.0
0.159189 -0.000434563 0.0
0 0 0.0
0.0469041 -4.8803e-05 0.0
0.0891723 -0.000159708 0.0
0.18833 -0.000623484 0.0
0.160985 -0.00049691 0.0
0.228018 -0.000832867 0.0
0.240371 -0.000938725 0.0
0.247333 -0.000896708 0.0
0.249997 -0.000953427 0.0
0.247675 -0.000941499 0.0
0.239646 -0.000897516 0.0
0.227007 -0.000798719 0.0
0.186705 -0.000600595 0.0
0.209319 -0.0007352 0.0
0.210713 -0.000765398 0.0
0 0 0.0
0.0483069 -6.08593e-05 0.0
0.128722 -0.000374344 0.0
0.0911598 -0.00020237 0.0
0.126501 -0.000322692 0.0
0.159051 -0.000479955 0.0
0.0468167 -5.29805e-05 0.0
0 0 0.0
0.0890242 -0.000177155 0.0
0.161144 -0.00054907 0.0
0.1885 -0.000705954 0.0
0.228137 -0.000954622 0.0
0.240432 -0.00104069 0.0
0.247702 -0.0010433 0.0
0.247291 -0.00103762 0.0
0.249996 -0.00105699 0.0
0.239588 -0.000995233 0.0
0.226893 -0.000913913 0.0
0.186539 -0.000679311 0.0
0.209207 -0.000813608 0.0
0.210828 -0.000846313 0.0
0 0 0.0
0.0484217 -6.68169e-05 0.0
0.0913301 -0.000222085 0.0
0.161319 -0.000604441 0.0
0.128878 -0.00040607 0.0
0.126342 -0.000355169 0.0
0.158929 -0.000518999 0.0
0.0467151 -5.84509e-05 0.0
0 0 0.0
0.0888887 -0.000193074 0.0
0.210936 -0.000921396 0.0
0.188617 -0.000762025 0.0
0.240484 -0.00112679 0.0
0.228234 -0.00105783 0.0
0.24775 -0.00120444 0.0
0.249995 -0.00116836 0.0
0.247265 -0.00112162 0.0
0.239522 -0.00109967 0.0
0.226814 -0.000992001 0.0
0.186427 -0.00073128 0.0
0.158727 -0.000583417 0.0
0.209083 -0.00089757 0.0
0 0 0.0
0.0915009 -0.000242963 0.0
0.0485569 -7.43688e-05 0.0
0.161473 -0.000655271 0.0
0.12911 -0.000455816 0.0
0.126166 -0.00039104 0.0
0 0 0.0
0.0466038 -6.41373e-05 0.0
0.0887083 -0.000214048 0.0
0.211055 -0.00100109 0.0
0.188826 -0.00086386 0.0
0.240541 -0.00121947 0.0
0.228343 -0.00116942 0.0
0.247776 -0.00130356 0.0
0.249993 -0.00129129 0.0
0.247237 -0.00121394 0.0
0.158577 -0.000627911 0.0
0.208966 -0.000975022 0.0
0.239449 -0.00121282 0.0
0.226728 -0.00107703 0.0
0.186265 -0.000806564 0.0
0 0 0.0
0.0486902 -8.12049e-05 0.0
0.0917049 -0.000267252 0.0
0.161684 -0.000722 0.0
0.129337 -0.000502913 0.0
0.0885258 -0.000234325 0.0
0.12594 -0.000436018 0.0
0 0 0.0
0.046476 -7.0766e-05 0.0
0.211206 -0.00110504 0.0
0.189017 -0.000954235 0.0
0.240618 -0.00134645 0.0
0.228463 -0.00129212 0.0
0.247807 -0.00140958 0.0
0.249992 -0.00142698 0.0
0.247178 -0.00139799 0.0
0.158374 -0.000690513 0.0
0.239369 -0.00133911 0.0
0.20884 -0.0010564 0.0
0.226573 -0.0012304 0.0
0.186038 -0.000912773 0.0
0 0 0.0
0.0919556 -0.000297585 0.0
0.0488443 -8.94119e-05 0.0
0.161964 -0.000811354 0.0
0.129585 -0.00055471 0.0
0.088347 -0.000254982 0.0
0.125722 -0.00048033 0.0
0 0 0.0
0.0463408 -7.77856e-05 0.0
0.189226 -0.00105468 0.0
0.211374 -0.00122053 0.0
0.240705 -0.00148827 0.0
0.247849 -0.00155359 0.0
0.228596 -0.00142647 0.0
0.249989 -0.0015724 0.0
0.247132 -0.00154559 0.0
0.239281 -0.0014748 0.0
0.249559 -0.00168593 0.0
0.158149 -0.000759223 0.0
0.226441 -0.0013573 0.0
0.208623 -0.00119786 0.0
0.185886 -0.000981059 0.0
0 0 0.0
0.0921851 -0.000325407 0.0
0.0490253 -9.9646e-05 0.0
0.162174 -0.000878891 0.0
0.12986 -0.000611865 0.0
0.08813 -0.000279875 0.0
0.125519 -0.000520856 0.0
0 0 0.0
0.0462013 -8.50928e-05 0.0
0.189459 -0.00116447 0.0
0.21156 -0.00134813 0.0
0.240795 -0.0016411 0.0
0.228742 -0.00157697 0.0
0.247916 -0.00179381 0.0
0.249163 -0.00168534 0.0
0.24377 -0.00163539 0.0
0.233387 -0.00153593 0.0
0.249984 -0.00182396 0.0
0.157902 -0.000834697 0.0
0.218018 -0.00139092 0.0
0.203212 -0.00125799 0.0
0.18561 -0.00110424 0.0
0 0 0.0
0.0924602 -0.00035885 0.0
0.0492131 -0.000109254 0.0
0.162457 -0.000970885 0.0
0.130164 -0.000675917 0.0
0.125219 -0.000580794 0.0
0.0878906 -0.000307766 0.0
0 0 0.0
0.0460328 -9.32271e-05 0.0
0.189716 -0.00128694 0.0
0.211766 -0.00148944 0.0
0.247964 -0.00197753 0.0
0.228903 -0.00174175 0.0
0.240902 -0.00181306 0.0
0.247049 -0.00180049 0.0
0.239116 -0.00172302 0.0
0.226194 -0.00159299 0.0
0.249975 -0.0020114 0.0
0.157628 -0.000919006 0.0
0.208294 -0.00141125 0.0
0.185361 -0.00121575 0.0
0 0 0.0
0.0494109 -0.000119739 0.0
0.0927651 -0.000396861 0.0
0.130449 -0.000735328 0.0
0.189998 -0.00142074 0.0
0.162772 -0.00107302 0.0
0.124928 -0.000638582 0.0
0.0876271 -0.000338707 0.0
0.0458536 -0.000102555 0.0
0 0 0.0
0.229048 -0.00189221 0.0
0.211994 -0.00164819 0.0
0.248009 -0.00213674 0.0
0.241014 -0.00200516 0.0
0.226022 -0.00175288 0.0
0.246983 -0.00198381 0.0
0.238995 -0.00189764 0.0
0.24997 -0.00221804 0.0
0.18509 -0.00133588 0.0
0.157266 -0.00102781 0.0
0.208 -0.0015973 0.0
0 0 0.0
0.0496404 -0.000132865 0.0
0.0931393 -0.000443136 0.0
0.130815 -0.000811978 0.0
0.19023 -0.0015361 0.0
0.163194 -0.00121597 0.0
0.12461 -0.000701161 0.0
0.0873092 -0.000376022 0.0
0.0456588 -0.000112404 0.0
0 0 0.0
0.124258 -0.000772086 0.0
0.229204 -0.00205021 0.0
0.212323 -0.00188423 0.0
0.241189 -0.00230904 0.0
0.248054 -0.00230522 0.0
0.225763 -0.0019928 0.0
0.238865 -0.00208761 0.0
0.246914 -0.00218755 0.0
0.249956 -0.00244601 0.0
0.184791 -0.00146779 0.0
0.156929 -0.00113311 0.0
0.207749 -0.00175969 0.0
0 0 0.0
0.0498937 -0.000146747 0.0
0.0935186 -0.000491158 0.0
0.131222 -0.000900181 0.0
0.190571 -0.00169908 0.0
0.163592 -0.00134977 0.0
0.0454402 -0.000124951 0.0
0.0869851 -0.000414968 0.0
0 0 0.0
0.123935 -0.000834955 0.0
0.229412 -0.00227255 0.0
0.21261 -0.00208928 0.0
0.241328 -0.00255279 0.0
0.248112 -0.00254864 0.0
0.225581 -0.00215718 0.0
0.238721 -0.00229632 0.0
0.249943 -0.00269911 0.0
0.246795 -0.00251786 0.0
0.184545 -0.00157204 0.0
0.156559 -0.00124512 0.0
0.207471 -0.00193184 0.0
0 0 0.0
0.050172 -0.000162031 0.0
0.0939369 -0.000543857 0.0
0.131742 -0.00101351 0.0
0.191041 -0.00193355 0.0
0.212923 -0.00232082 0.0
0.164029 -0.0015019 0.0
0.0452162 -0.000136877 0.0
0.086633 -0.000456297 0.0
0 0 0.0
0.123521 -0.000916797 0.0
0.229721 -0.00260487 0.0
0.241447 -0.00277258 0.0
0.248176 -0.00281732 0.0
0.249925 -0.00290855 0.0
0.225389 -0.00232931 0.0
0.238551 -0.00252961 0.0
0.246697 -0.00277336 0.0
0.156155 -0.00136774 0.0
0.184193 -0.00172514 0.0
0.207164 -0.00211946 0.0
0 0 0.0
0.0505025 -0.000181702 0.0
0.0944071 -0.000607561 0.0
0.132255 -0.0011322 0.0
0.19136 -0.00209793 0.0
0.213266 -0.00257587 0.0
0.164516 -0.00167403 0.0
0.0449555 -0.000150219 0.0
0.0862452 -0.000501471 0.0
0 0 0.0
0.155805 -0.00146544 0.0
0.0858225 -0.000547971 0.0
0.122996 -0.0010172 0.0
0.229977 -0.00290394 0.0
0.241571 -0.00300084 0.0
0.248268 -0.00325822 0.0
0.249909 -0.00312824 0.0
0.246613 -0.00299085 0.0
0.225131 -0.00255491 0.0
0.238293 -0.00288937 0.0
0.183702 -0.00193048 0.0
0.206879 -0.00229663 0.0
0.230207 -0.00316128 0.0
0 0 0.0
0.0508527 -0.000203184 0.0
0.132827 -0.0012693 0.0
0.0949315 -0.000682345 0.0
0.213647 -0.00287357 0.0
0.191937 -0.00240314 0.0
0.165057 -0.00187113 0.0
0.0446567 -0.000165101 0.0
0 0 0.0
0.183376 -0.00206772 0.0
0.155329 -0.00160258 0.0
0.12249 -0.00111363 0.0
0.0443385 -0.000182449 0.0
0.0853568 -0.000600452 0.0
0.241741 -0.00332848 0.0
0.248319 -0.00352648 0.0
0.249871 -0.00345221 0.0
0.24984 -0.00372125 0.0
0.246515 -0.00322116 0.0
0.224837 -0.00280413 0.0
0.238067 -0.00317595 0.0
0.206566 -0.00247418 0.0
0.230441 -0.00344845 0.0
0.0512289 -0.000228585 0.0
0 0 0.0
0.133365 -0.00140012 0.0
0.0955169 -0.000767259 0.0
0.214059 -0.00320714 0.0
0.192325 -0.00261707 0.0
0.16566 -0.00210052 0.0
0 0 0.0
0.18291 -0.00225041 0.0
0.154701 -0.00177245 0.0
0.122031 -0.00119111 0.0
0.044014 -0.000198166 0.0
0.0848531 -0.000653642 0.0
0.241986 -0.0038542 0.0
0.24837 -0.00380863 0.0
0.249794 -0.00400377 0.0
0.246308 -0.00369187 0.0
0.224518 -0.00306822 0.0
0.237824 -0.00348541 0.0
0.206038 -0.00277737 0.0
0.230762 -0.00384573 0.0
0 0 0.0
0.0516706 -0.000260415 0.0
0.134066 -0.00158169 0.0
0.0961147 -0.000860094 0.0
0.166328 -0.00236156 0.0
0.214512 -0.0035915 0.0
0.193032 -0.00301658 0.0
0 0 0.0
0 0 0.0
0.182392 -0.00244882 0.0
0.154122 -0.00192563 0.0
0.121443 -0.00129192 0.0
0.0843077 -0.000708091 0.0
0.0436424 -0.000214329 0.0
0.242173 -0.00428272 0.0
0.248422 -0.0042189 0.0
0.2376 -0.00375118 0.0
0.249723 -0.00441506 0.0
0.246126 -0.00406556 0.0
0.224154 -0.00335795 0.0
0.205574 -0.00302459 0.0
0.242322 -0.00466768 0.0
0.231087 -0.0042935 0.0
0.0521682 -0.000294778 0.0
0.0968511 -0.000973846 0.0
0.134857 -0.00179909 0.0
0.166921 -0.00261036 0.0
0.215007 -0.00402458 0.0
0.1935 -0.00330845 0.0
0 0 0.0
0 0 0.0
0.153624 -0.00204082 0.0
0.181678 -0.00270036 0.0
0.0837792 -0.000754156 0.0
0.120709 -0.00140619 0.0
0.0432385 -0.00023271 0.0
0.248492 -0.00487664 0.0
0.249619 -0.00487407 0.0
0.205066 -0.00328552 0.0
0.23735 -0.00402773 0.0
0.245968 -0.00437879 0.0
0.223594 -0.00377405 0.0
0.242478 -0.00507114 0.0
0.231579 -0.00499105 0.0
0.215535 -0.0045239 0.0
0.0527747 -0.000339952 0.0
0.0976937 -0.00111978 0.0
0.135889 -0.00209618 0.0
0.167735 -0.00295489 0.0
0.194355 -0.00385367 0.0
0 0 0.0
0 0 0.0
0.15281 -0.00222211 0.0
0.181037 -0.00291787 0.0
0.083091 -0.000811831 0.0
0.120017 -0.00150336 0.0
0.0427888 -0.000249175 0.0
0.245784 -0.00471204 0.0
0.249489 -0.00536744 0.0
0.248506 -0.00541095 0.0
0.2045 -0.00355803 0.0
0.237003 -0.00440698 0.0
0.223115 -0.00411874 0.0
0.180335 -0.00313612 0.0
0.242728 -0.00588629 0.0
0 0 0.0
0.231938 -0.005604 0.0
0.195115 -0.00437629 0.0
0.216098 -0.00508819 0.0
0.0534167 -0.000394377 0.0
0.136759 -0.00236718 0.0
0.0987687 -0.00132249 0.0
0.168827 -0.00347417 0.0
0 0 0.0
0 0 0.0
0 0 0.0
0 0 0.0
0 0 0.0
0.042354 -0.000262489 0.0
0.119271 -0.00160086 0.0
0.152064 -0.00237746 0.0
0.0824872 -0.000858388 0.0
0.245506 -0.00516208 0.0
0.249313 -0.00591403 0.0
0.248507 -0.00599883 0.0
0.222673 -0.00439911 0.0
0.203865 -0.00384259 0.0
0.236416 -0.00497746 0.0
0.203273 -0.00408998 0.0
0.179759 -0.0032964 0.0
0.242882 -0.00656653 0.0
0.232317 -0.00627608 0.0
0 0 0.0
9.15902e-05 -4.11925e-05 0.0
0 0 0.0
-0.000248317 0.00115018 0.0
0.216704 -0.00574466 0.0
0.195737 -0.00481658 0.0
0.0542338 -0.000468689 0.0
0.137899 -0.00273414 0.0
0.0999017 -0.00154932 0.0
0.169865 -0.00399486 0.0
0 0 0.0
0 0 0.0
0 0 0.0
-0.000172732 0.000517344 0.0
9.7377e-06 -0.000162001 0.0
9.63744e-05 -0.000113133 0.0
0 0 0.0
0.0418659 -0.000278399 0.0
0.118602 -0.00167606 0.0
0.151255 -0.00252647 0.0
0.0817117 -0.000910537 0.0
0.24518 -0.00566149 0.0
0.249085 -0.00650923 0.0
0.248466 -0.0066416 0.0
0.222184 -0.00470062 0.0
0.236028 -0.00534142 0.0
0.202619 -0.00433691 0.0
0.178714 -0.00356511 0.0
0.243023 -0.00731311 0.0
0.235723 -0.00707484 0.0
0.225574 -0.00668422 0.0
0 0 0.0
0.000178184 -2.60652e-05 0.0
0 0 0.0
0 0 0.0
-0.000910492 0.00286389 0.0
-0.000818 0.00171808 0.0
0.212549 -0.00617928 0.0
0.196608 -0.00549295 0.0
0.101082 -0.00180012 0.0
0.0551148 -0.00056321 0.0
0.139189 -0.00318791 0.0
0.170998 -0.0046093 0.0
0 0 0.0
-0.000224189 0.000120585 0.0
-0.000508829 0.000737801 0.0
-7.62273e-05 -4.0545e-05 0.0
2.41111e-05 3.59726e-05 0.0
0 0 0.0
0.0413543 -0.000292883 0.0
0.117768 -0.00176084 0.0
0.150387 -0.00266359 0.0
0.0809626 -0.000954853 0.0
0.244785 -0.00619441 0.0
0.248799 -0.00715385 0.0
0.248377 -0.00734802 0.0
0.22127 -0.00522334 0.0
0.235585 -0.00570905 0.0
0.201767 -0.00464329 0.0
0.149447 -0.00280848 0.0
0.177778 -0.003787 0.0
0.243106 -0.00796108 0.0
0.232926 -0.00759727 0.0
0.217784 -0.00709951 0.0
0 0 0.0
0.000105855 5.30827e-05 0.0
0 0 0.0
0 0 0.0
0 0 0.0
0 0 0.0
-0.00141913 0.00186299 0.0
-0.000277175 0.00260791 0.0
-0.000971602 0.00389495 0.0
-0.00221667 0.00520966 0.0
-0.00177493 0.00336376 0.0
0 0 0.0
-9.51098e-05 0.00447618 0.0
0.197773 -0.00651754 0.0
0.171986 -0.00520543 0.0
0 0 0.0
0.0562758 -0.00069992 0.0
0.102591 -0.00215772 0.0
0.140887 -0.00388035 0.0
0 0 0.0
0 0 0.0
-0.000756437 0.000757678 0.0
-0.000473012 0.000389983 0.0