# vtk DataFile Version 3.0
Mesh NS-CD Problem
ASCII
DATASET UNSTRUCTURED_GRID
POINTS 10839 float
-2 0.3 0.0
-2 0.4 0.0
-2 0.35 0.0
-2 0.45 0.0
-2 0.5 0.0
-2 0.55 0.0
-2 0 0.0
-2 0.05 0.0
-2 0.85 0.0
-2 0.9 0.0
-2 0.1 0.0
-2 0.15 0.0
-2 0.25 0.0
-2 0.2 0.0
-1.96653 0.266667 0.0
-1.96524 0.415385 0.0
-1.96485 0.315 0.0
-1.96348 0.363636 0.0
-1.96414 0.464286 0.0
-2 0.6 0.0
-1.96538 0.584615 0.0
-1.96538 0.538462 0.0
-1.94979 0 0.0
-1.96653 0.0666666 0.0
-1.93306 0.0333333 0.0
-2 0.8 0.0
-2 0.75 0.0
-2 0.7 0.0
-2 0.65 0.0
-1.96249 0.7375 0.0
-1.96666 0.833333 0.0
-2 1 0.0
-2 0.95 0.0
-1.96249 0.8875 0.0
-1.96666 0.933333 0.0
-1.96234 0.1125 0.0
-1.96653 0.166667 0.0
-1.93724 0.225 0.0
-1.92971 0.28 0.0
-1.93048 0.380769 0.0
-1.93048 0.423077 0.0
-1.89958 0.3375 0.0
-1.9292 0.484203 0.0
-1.92117 0.530907 0.0
-1.96363 0.636364 0.0
-1.93076 0.576923 0.0
-1.89958 0 0.0
-1.88703 0.0375 0.0
-1.90963 0.08 0.0
-1.86611 0.0666666 0.0
-1.93749 0.775 0.0
-1.93635 0.672727 0.0
-1.92999 0.72 0.0
-1.93332 0.866667 0.0
-1.92856 0.821429 0.0
-1.94999 1 0.0
-1.92499 0.9625 0.0
-1.92499 0.925 0.0
-1.89998 0.9 0.0
-1.89958 0.125 0.0
-1.92827 0.178571 0.0
-1.89958 0.233333 0.0
-1.89045 0.290909 0.0
-1.86096 0.311538 0.0
-1.89241 0.392857 0.0
-1.89334 0.448489 0.0
-1.85655 0.357143 0.0
-1.89614 0.653846 0.0
-1.89427 0.504121 0.0
-1.8952 0.559753 0.0
-1.89614 0.615385 0.0
-1.84937 0 0.0
-1.83264 0.0333333 0.0
-1.85655 0.107143 0.0
-1.81172 0.075 0.0
-1.89998 0.766667 0.0
-1.89089 0.709091 0.0
-1.87498 0.85 0.0
-1.85998 0.79 0.0
-1.88748 0.8125 0.0
-1.89998 1 0.0
-1.88748 0.9625 0.0
-1.86664 0.933333 0.0
-1.85712 0.892857 0.0
-1.87448 0.15 0.0
-1.86611 0.194444 0.0
-1.83264 0.133333 0.0
-1.83264 0.2625 0.0
-1.82068 0.321429 0.0
-1.85664 0.404762 0.0
-1.85674 0.452381 0.0
-1.85683 0.5 0.0
-1.81184 0.375 0.0
-1.85712 0.642857 0.0
-1.85693 0.547619 0.0
-1.85702 0.595238 0.0
-1.79917 0 0.0
-1.78482 0.0357143 0.0
-1.79917 0.116667 0.0
-1.76569 0.0666666 0.0
-1.85452 0.745455 0.0
-1.82689 0.692308 0.0
-1.81815 0.781818 0.0
-1.82497 0.825 0.0
-1.84997 1 0.0
-1.8333 0.958333 0.0
-1.81247 0.8875 0.0
-1.81247 0.925 0.0
-1.81742 0.218182 0.0
-1.82427 0.175 0.0
-1.77634 0.145455 0.0
-1.79144 0.242308 0.0
-1.78482 0.285714 0.0
-1.77469 0.332653 0.0
-1.81215 0.529762 0.0
-1.81194 0.422619 0.0
-1.81203 0.470238 0.0
-1.76714 0.392857 0.0
-1.81234 0.625 0.0
-1.79732 0.571429 0.0
-1.74896 0 0.0
-1.73222 0.0333333 0.0
-1.75398 0.105 0.0
-1.71883 0.07 0.0
-1.79227 0.730769 0.0
-1.78007 0.679121 0.0
-1.75765 0.769231 0.0
-1.78178 0.818182 0.0
-1.78996 0.86 0.0
-1.79996 1 0.0
-1.78568 0.964286 0.0
-1.76663 0.922222 0.0
-1.76569 0.1875 0.0
-1.73222 0.15 0.0
-1.74896 0.25 0.0
-1.73714 0.304762 0.0
-1.76743 0.537202 0.0
-1.72869 0.343878 0.0
-1.76732 0.485119 0.0
-1.76723 0.440476 0.0
-1.72243 0.410714 0.0
-1.76757 0.607143 0.0
-1.69875 0 0.0
-1.68369 0.035 0.0
-1.69875 0.1125 0.0
-1.66528 0.075 0.0
-1.74341 0.708974 0.0
-1.73324 0.665934 0.0
-1.70441 0.74478 0.0
-1.71423 0.785714 0.0
-1.72303 0.826923 0.0
-1.74541 0.854545 0.0
-1.74541 0.890909 0.0
-1.74996 1 0.0
-1.73745 0.9625 0.0
-1.71359 0.927273 0.0
-1.68716 0.153846 0.0
-1.7131 0.214286 0.0
-1.70725 0.275 0.0
-1.69712 0.321939 0.0
-1.72279 0.589286 0.0
-1.72261 0.5 0.0
-1.7227 0.544643 0.0
-1.6827 0.355102 0.0
-1.67773 0.428571 0.0
-1.70763 0.464286 0.0
-1.70369 0.62449 0.0
-1.64854 0 0.0
-1.63181 0.0375 0.0
-1.64137 0.142857 0.0
-1.61764 0.0769231 0.0
-1.69458 0.703846 0.0
-1.67471 0.657437 0.0
-1.66143 0.727637 0.0
-1.67125 0.768571 0.0
-1.67851 0.821429 0.0
-1.68841 0.861538 0.0
-1.70904 0.890909 0.0
-1.69995 1 0.0
-1.68176 0.963636 0.0
-1.67267 0.927273 0.0
-1.65427 0.187143 0.0
-1.66718 0.231429 0.0
-1.66554 0.3 0.0
-1.67802 0.571429 0.0
-1.67792 0.523809 0.0
-1.6367 0.366327 0.0
-1.63682 0.423469 0.0
-1.62568 0.502976 0.0
-1.6629 0.470238 0.0
-1.65254 0.618367 0.0
-1.6059 0.307143 0.0
-1.59833 0 0.0
-1.58288 0.0384615 0.0
-1.60563 0.169643 0.0
-1.58179 0.112271 0.0
-1.56964 0.0714286 0.0
-1.64574 0.690385 0.0
-1.62827 0.751429 0.0
-1.63371 0.791071 0.0
-1.64279 0.857143 0.0
-1.65378 0.896154 0.0
-1.64994 1 0.0
-1.6363 0.963636 0.0
-1.61916 0.930769 0.0
-1.61345 0.209107 0.0
-1.62126 0.248571 0.0
-1.56989 0.196429 0.0
-1.63324 0.553571 0.0
-1.58846 0.535714 0.0
-1.59408 0.361905 0.0
-1.59161 0.402211 0.0
-1.58832 0.464286 0.0
-1.61504 0.598581 0.0
-1.59683 0.64359 0.0
-1.57899 0.274107 0.0
-1.56176 0.322381 0.0
-1.54812 0 0.0
-1.53378 0.0357143 0.0
-1.54593 0.147619 0.0
-1.53385 0.0732143 0.0
-1.53393 0.110714 0.0
-1.58522 0.704286 0.0
-1.58709 0.745 0.0
-1.58896 0.785714 0.0
-1.60695 0.830357 0.0
-1.60707 0.892857 0.0
-1.59993 1 0.0
-1.58454 0.965385 0.0
-1.57135 0.928571 0.0
-1.55209 0.241071 0.0
-1.5291 0.198214 0.0
-1.56936 0.570918 0.0
-1.54369 0.517857 0.0
-1.5464 0.380952 0.0
-1.54564 0.427721 0.0
-1.54488 0.47449 0.0
-1.55026 0.606122 0.0
-1.54222 0.677143 0.0
-1.52943 0.282857 0.0
-1.52143 0.33619 0.0
-1.49792 0 0.0
-1.49802 0.05 0.0
-1.49822 0.15 0.0
-1.49312 0.1 0.0
-1.5423 0.717143 0.0
-1.54419 0.767857 0.0
-1.54727 0.819048 0.0
-1.57122 0.861905 0.0
-1.53553 0.914286 0.0
-1.54992 1 0.0
-1.53563 0.964286 0.0
-1.49842 0.25 0.0
-1.48831 0.2 0.0
-1.5214 0.558929 0.0
-1.49891 0.5 0.0
-1.49871 0.4 0.0
-1.47631 0.45 0.0
-1.49911 0.6 0.0
-1.49921 0.65 0.0
-1.49931 0.7 0.0
-1.48111 0.35 0.0
-1.48351 0.3 0.0
-1.44771 0 0.0
-1.44782 0.05 0.0
-1.44804 0.15 0.0
-1.44793 0.1 0.0
-1.49941 0.75 0.0
-1.49951 0.8 0.0
-1.49981 0.95 0.0
-1.49961 0.85 0.0
-1.49971 0.9 0.0
-1.49991 1 0.0
-1.44826 0.25 0.0
-1.43815 0.2 0.0
-1.47151 0.55 0.0
-1.44881 0.5 0.0
-1.44859 0.4 0.0
-1.42619 0.45 0.0
-1.44913 0.65 0.0
-1.44902 0.6 0.0
-1.44935 0.75 0.0
-1.44924 0.7 0.0
-1.43972 0.35 0.0
-1.43336 0.3 0.0
-1.3975 0 0.0
-1.39762 0.05 0.0
-1.39786 0.15 0.0
-1.39274 0.1 0.0
-1.44957 0.85 0.0
-1.44946 0.8 0.0
-1.4523 0.95 0.0
-1.44968 0.9 0.0
-1.4499 1 0.0
-1.3981 0.25 0.0
-1.38798 0.2 0.0
-1.42141 0.55 0.0
-1.3987 0.5 0.0
-1.39834 0.35 0.0
-1.37845 0.4 0.0
-1.37607 0.45 0.0
-1.40784 0.65 0.0
-1.39894 0.6 0.0
-1.41185 0.75 0.0
-1.39918 0.7 0.0
-1.38322 0.3 0.0
-1.34729 0 0.0
-1.34492 0.05 0.0
-1.34018 0.15 0.0
-1.34255 0.1 0.0
-1.40707 0.85 0.0
-1.39941 0.8 0.0
-1.39977 0.95 0.0
-1.39965 0.9 0.0
-1.39989 1 0.0
-1.33781 0.2 0.0
-1.33544 0.25 0.0
-1.37131 0.55 0.0
-1.34859 0.5 0.0
-1.33833 0.4 0.0
-1.3307 0.35 0.0
-1.32595 0.45 0.0
-1.34885 0.6 0.0
-1.36655 0.65 0.0
-1.36179 0.75 0.0
-1.34911 0.7 0.0
-1.33307 0.3 0.0
-1.29708 0 0.0
-1.29722 0.05 0.0
-1.2975 0.15 0.0
-1.29236 0.1 0.0
-1.35703 0.85 0.0
-1.34937 0.8 0.0
-1.34988 1 0.0
-1.34962 0.9 0.0
-1.35226 0.95 0.0
-1.28528 0.25 0.0
-1.28764 0.2 0.0
-1.28931 0.35 0.0
-1.32121 0.55 0.0
-1.29848 0.5 0.0
-1.28709 0.45 0.0
-1.2982 0.4 0.0
-1.29876 0.6 0.0
-1.31647 0.65 0.0
-1.29918 0.75 0.0
-1.29904 0.7 0.0
-1.28292 0.3 0.0
-1.24687 0 0.0
-1.24702 0.05 0.0
-1.24717 0.1 0.0
-1.24732 0.15 0.0
-1.29946 0.85 0.0
-1.29932 0.8 0.0
-1.29987 1 0.0
-1.29974 0.95 0.0
-1.30462 0.9 0.0
-1.24762 0.25 0.0
-1.23747 0.2 0.0
-1.24792 0.35 0.0
-1.22807 0.4 0.0
-1.27111 0.55 0.0
-1.24837 0.5 0.0
-1.24822 0.45 0.0
-1.24867 0.6 0.0
-1.26639 0.65 0.0
-1.26167 0.75 0.0
-1.24897 0.7 0.0
-1.23277 0.3 0.0
-1.19667 0 0.0
-1.19683 0.05 0.0
-1.18964 0.15 0.0
-1.19198 0.1 0.0
-1.25695 0.85 0.0
-1.24927 0.8 0.0
-1.25223 0.95 0.0
-1.24987 1 0.0
-1.24957 0.9 0.0
-1.1873 0.2 0.0
-1.18496 0.25 0.0
-1.18028 0.35 0.0
-1.17794 0.4 0.0
-1.1981 0.45 0.0
-1.19842 0.55 0.0
-1.19826 0.5 0.0
-1.19858 0.6 0.0
-1.19874 0.65 0.0
-1.19906 0.75 0.0
-1.1989 0.7 0.0
-1.18262 0.3 0.0
-1.14646 0 0.0
-1.14663 0.05 0.0
-1.1418 0.1 0.0
-1.13713 0.2 0.0
-1.14697 0.15 0.0
-1.20691 0.85 0.0
-1.20926 0.8 0.0
-1.20221 0.95 0.0
-1.19986 1 0.0
-1.20456 0.9 0.0
-1.13997 0.3 0.0
-1.14731 0.25 0.0
-1.13781 0.4 0.0
-1.13014 0.35 0.0
-1.12548 0.45 0.0
-1.14815 0.5 0.0
-1.15962 0.55 0.0
-1.14849 0.6 0.0
-1.15745 0.65 0.0
-1.16155 0.75 0.0
-1.14917 0.8 0.0
-1.14883 0.7 0.0
-1.09625 0 0.0
-1.09661 0.1 0.0
-1.09393 0.05 0.0
-1.09697 0.2 0.0
-1.08929 0.15 0.0
-1.15687 0.85 0.0
-1.14985 1 0.0
-1.15219 0.95 0.0
-1.14951 0.9 0.0
-1.09733 0.3 0.0
-1.08465 0.25 0.0
-1.09769 0.4 0.0
-1.08 0.35 0.0
-1.08661 0.45 0.0
-1.09804 0.5 0.0
-1.12082 0.55 0.0
-1.10916 0.8 0.0
-1.10629 0.7 0.0
-1.0984 0.6 0.0
-1.11616 0.65 0.0
-1.11149 0.75 0.0
-1.04604 0 0.0
-1.04623 0.05 0.0
-1.04642 0.1 0.0
-1.0468 0.2 0.0
-1.03911 0.15 0.0
-1.09948 0.9 0.0
-1.0993 0.85 0.0
-1.09984 1 0.0
-1.09966 0.95 0.0
-1.04718 0.3 0.0
-1.03449 0.25 0.0
-1.04756 0.4 0.0
-1.02986 0.35 0.0
-1.04775 0.45 0.0
-1.04794 0.5 0.0
-1.04813 0.55 0.0
-1.05911 0.8 0.0
-1.04831 0.6 0.0
-1.06376 0.7 0.0
-1.0485 0.65 0.0
-1.04888 0.75 0.0
-0.995833 0 0.0
-0.991231 0.1 0.0
-0.996033 0.05 0.0
-0.986629 0.2 0.0
-0.98893 0.15 0.0
-1.05447 0.9 0.0
-1.04926 0.85 0.0
-1.04983 1 0.0
-1.04964 0.95 0.0
-0.984328 0.25 0.0
-0.99703 0.3 0.0
-0.997429 0.4 0.0
-0.997628 0.45 0.0
-0.979726 0.35 0.0
-0.997827 0.5 0.0
-0.998027 0.55 0.0
-0.998226 0.6 0.0
-0.961416 0.475 0.0
-1.00907 0.8 0.0
-0.998426 0.65 0.0
-0.998625 0.7 0.0
-1.01138 0.75 0.0
-0.945625 0 0.0
-0.946044 0.1 0.0
-0.943334 0.05 0.0
-0.946463 0.2 0.0
-0.938752 0.15 0.0
-1.00444 0.9 0.0
-1.00675 0.85 0.0
-0.999821 1 0.0
-1.00213 0.95 0.0
-0.93417 0.25 0.0
-0.946881 0.3 0.0
-0.9473 0.4 0.0
-0.929588 0.35 0.0
-0.925005 0.45 0.0
-0.960371 0.525 0.0
-0.959325 0.575 0.0
-0.958279 0.625 0.0
-0.922714 0.5 0.0
-0.959017 0.8 0.0
-0.957233 0.675 0.0
-0.952999 0.7125 0.0
-0.948766 0.75 0.0
-0.895417 0 0.0
-0.895855 0.1 0.0
-0.893136 0.05 0.0
-0.896294 0.2 0.0
-0.888573 0.15 0.0
-0.949184 0.85 0.0
-0.954415 0.9 0.0
-0.949812 1 0.0
-0.949603 0.95 0.0
-0.884011 0.25 0.0
-0.896733 0.3 0.0
-0.874887 0.45 0.0
-0.879449 0.35 0.0
-0.897171 0.4 0.0
-0.920423 0.55 0.0
-0.918132 0.6 0.0
-0.915841 0.65 0.0
-0.872606 0.5 0.0
-0.908968 0.8 0.0
-0.91355 0.7 0.0
-0.898707 0.75 0.0
-0.845208 0 0.0
-0.845438 0.05 0.0
-0.845667 0.1 0.0
-0.845896 0.15 0.0
-0.833853 0.25 0.0
-0.846126 0.2 0.0
-0.899146 0.85 0.0
-0.904386 0.9 0.0
-0.899584 0.95 0.0
-0.899804 1 0.0
-0.838062 0.35 0.0
[...]
POINT_DATA 10839
VECTORS Velocity float
0.21 0 0.0
0.24 0 0.0
0.2275 0 0.0
0.2475 0 0.0
0.25 0 0.0
0.2475 0 0.0
0 0 0.0
0.0475 0 0.0
0.1275 0 0.0
0.09 0 0.0
0.09 0 0.0
0.1275 0 0.0
0.1875 0 0.0
0.16 0 0.0
0.195557 -2.42663e-05 0.0
0.242841 -3.30232e-05 0.0
0.215776 -2.88505e-05 0.0
0.231406 -3.24984e-05 0.0
0.248725 -3.5149e-05 0.0
0.24 0 0.0
0.24284 -3.29479e-05 0.0
0.24852 -3.38512e-05 0.0
0 0 0.0
0.0622239 -4.27977e-06 0.0
0.0322271 -2.83026e-06 0.0
0.16 0 0.0
0.1875 0 0.0
0.21 0 0.0
0.2275 0 0.0
0.193592 -2.72349e-05 0.0
0.138887 -1.51822e-05 0.0
0 0 0.0
0.0475 0 0.0
0.0998415 -1.05803e-05 0.0
0.0622205 -4.32851e-06 0.0
0.0998462 -1.10516e-05 0.0
0.138891 -1.5314e-05 0.0
0.17438 -3.8244e-05 0.0
0.201606 -5.22972e-05 0.0
0.235787 -6.37557e-05 0.0
0.244085 -6.66881e-05 0.0
0.223602 -8.54122e-05 0.0
0.249751 -6.96562e-05 0.0
0.249044 -7.75945e-05 0.0
0.231404 -3.30206e-05 0.0
0.244081 -6.58993e-05 0.0
0 0 0.0
0.0361083 -5.45417e-06 0.0
0.0736128 -1.52095e-05 0.0
0.0622495 -1.66473e-05 0.0
0.17437 -3.76868e-05 0.0
0.220162 -5.22484e-05 0.0
0.201594 -5.23721e-05 0.0
0.115548 -2.26833e-05 0.0
0.146676 -3.50557e-05 0.0
0 0 0.0
0.0360873 -3.68473e-06 0.0
0.0693659 -1.1914e-05 0.0
0.0899833 -2.35642e-05 0.0
0.109391 -3.18175e-05 0.0
0.146692 -3.43726e-05 0.0
0.178902 -6.40127e-05 0.0
0.206293 -8.35726e-05 0.0
0.214501 -0.000112464 0.0
0.238527 -9.97948e-05 0.0
0.24735 -0.000103887 0.0
0.229607 -0.000126902 0.0
0.226323 -8.97197e-05 0.0
0.249983 -0.000104392 0.0
0.246426 -0.000101575 0.0
0.23668 -9.567e-05 0.0
0 0 0.0
0.032251 -6.15546e-06 0.0
0.0956969 -3.6093e-05 0.0
0.0694298 -2.71975e-05 0.0
0.178876 -6.30417e-05 0.0
0.206269 -8.4198e-05 0.0
0.127476 -4.86811e-05 0.0
0.165873 -7.96964e-05 0.0
0.152325 -5.718e-05 0.0
0 0 0.0
0.0360793 -5.28436e-06 0.0
0.0621954 -1.64786e-05 0.0
0.0956297 -3.67932e-05 0.0
0.127525 -4.91419e-05 0.0
0.156661 -7.12619e-05 0.0
0.115601 -5.63554e-05 0.0
0.193626 -0.000117203 0.0
0.218141 -0.000148141 0.0
0.24094 -0.000135165 0.0
0.247737 -0.000140146 0.0
0.25 -0.000141664 0.0
0.234398 -0.000171367 0.0
0.229577 -0.00012514 0.0
0.247727 -0.000139832 0.0
0.240919 -0.000134916 0.0
0 0 0.0
0.0344879 -8.50895e-06 0.0
0.103121 -5.53298e-05 0.0
0.0623037 -2.75331e-05 0.0
0.189727 -9.97005e-05 0.0
0.212989 -0.000139001 0.0
0.170534 -0.000107898 0.0
0.144329 -8.01816e-05 0.0
0 0 0.0
0.0398976 -9.07382e-06 0.0
0.0997859 -5.03623e-05 0.0
0.0693207 -2.67705e-05 0.0
0.170624 -0.000108017 0.0
0.144421 -8.19158e-05 0.0
0.124377 -8.29825e-05 0.0
0.18365 -0.000136364 0.0
0.204131 -0.000163129 0.0
0.222038 -0.000191921 0.0
0.249109 -0.000185723 0.0
0.244026 -0.000180809 0.0
0.24912 -0.000185739 0.0
0.238551 -0.000217845 0.0
0.234353 -0.000170337 0.0
0.244883 -0.0001957 0.0
0 0 0.0
0.0322927 -9.00338e-06 0.0
0.0940746 -5.81131e-05 0.0
0.065218 -3.47787e-05 0.0
0.196696 -0.000149038 0.0
0.217871 -0.00018292 0.0
0.177438 -0.000151177 0.0
0.14869 -0.000105699 0.0
0.120329 -7.41221e-05 0.0
0 0 0.0
0.0343902 -8.6033e-06 0.0
0.0716436 -3.49476e-05 0.0
0.152424 -0.000118455 0.0
0.127615 -0.000102886 0.0
0.187578 -0.000168853 0.0
0.211951 -0.00021013 0.0
0.248605 -0.00023023 0.0
0.225685 -0.000237941 0.0
0.249783 -0.000231907 0.0
0.246474 -0.000228027 0.0
0.242064 -0.000266529 0.0
0.23849 -0.000217195 0.0
0 0 0.0
0.0338751 -1.12713e-05 0.0
0.0999932 -7.74672e-05 0.0
0.0695456 -4.62503e-05 0.0
0.206261 -0.000196736 0.0
0.222405 -0.000229174 0.0
0.189976 -0.000204257 0.0
0.168254 -0.000165136 0.0
0.143004 -0.000126839 0.0
0.124194 -9.37593e-05 0.0
0.0970837 -6.30869e-05 0.0
0 0 0.0
0.0360201 -1.09427e-05 0.0
0.0673142 -3.74256e-05 0.0
0.130334 -0.000124164 0.0
0.168482 -0.000165947 0.0
0.199472 -0.000216304 0.0
0.218378 -0.000253677 0.0
0.241992 -0.000267113 0.0
0.25 -0.000278819 0.0
0.247989 -0.000275562 0.0
0.229081 -0.000286067 0.0
0.244937 -0.000316972 0.0
0.248741 -0.000292479 0.0
0.234445 -0.000273547 0.0
0 0 0.0
0.0362335 -1.45169e-05 0.0
0.122658 -0.000127082 0.0
0.0712296 -5.46562e-05 0.0
0.20835 -0.000240235 0.0
0.225127 -0.000285634 0.0
0.198048 -0.000249218 0.0
0.177726 -0.000206562 0.0
0.146526 -0.000152545 0.0
0.119132 -0.000106773 0.0
0.0970508 -7.15005e-05 0.0
0 0 0.0
0.0349378 -1.22472e-05 0.0
0.067277 -4.21094e-05 0.0
0.152301 -0.000173268 0.0
0.178017 -0.000211513 0.0
0.210115 -0.000267381 0.0
0.244858 -0.000316783 0.0
0.24942 -0.000325445 0.0
0.232225 -0.000336083 0.0
0.244197 -0.000360263 0.0
0.249988 -0.000384269 0.0
0.249132 -0.000341868 0.0
0.235913 -0.000327099 0.0
0.212962 -0.000326016 0.0
0 0 0.0
0.0371624 -1.70911e-05 0.0
0.14111 -0.000176653 0.0
0.0999572 -0.000107017 0.0
0.0666001 -5.32601e-05 0.0
0.213629 -0.000291826 0.0
0.186608 -0.000254091 0.0
0.165085 -0.000206951 0.0
0.122241 -0.000127869 0.0
0.0928657 -7.83589e-05 0.0
0 0 0.0
0.0349079 -1.36695e-05 0.0
0.0642258 -4.47087e-05 0.0
0.165597 -0.000221217 0.0
0.186967 -0.000259905 0.0
0.158123 -0.000231287 0.0
0.247091 -0.000369755 0.0
0.248691 -0.000424489 0.0
0.231051 -0.000377053 0.0
0.240525 -0.000402274 0.0
0.248757 -0.00042425 0.0
0.240203 -0.000375906 0.0
0.229257 -0.000369127 0.0
0.199181 -0.000319066 0.0
0.218633 -0.000381044 0.0
0 0 0.0
0.0346502 -1.67712e-05 0.0
0.126169 -0.000171606 0.0
0.0681784 -6.01509e-05 0.0
0.0988189 -0.00011648 0.0
0.208084 -0.000333188 0.0
0.18976 -0.000290685 0.0
0.168127 -0.000241481 0.0
0.14062 -0.000175302 0.0
0.0954088 -9.31137e-05 0.0
0 0 0.0
0.0332518 -1.39865e-05 0.0
0.0660552 -5.32014e-05 0.0
0.183222 -0.000301388 0.0
0.159261 -0.000258652 0.0
0.244898 -0.000437372 0.0
0.24966 -0.000479864 0.0
0.23596 -0.000440695 0.0
0.244857 -0.000465646 0.0
0.249378 -0.00047891 0.0
0.238621 -0.000442588 0.0
0.218421 -0.000400006 0.0
0.203103 -0.000371845 0.0
0.223369 -0.000435304 0.0
0 0 0.0
0.0478069 -3.34134e-05 0.0
0.127919 -0.000195506 0.0
0.090423 -0.000109428 0.0
0.202609 -0.000357742 0.0
0.177968 -0.000294514 0.0
0.147889 -0.000221454 0.0
0.11872 -0.000145613 0.0
0.0780269 -7.8269e-05 0.0
0 0 0.0
0.0342298 -1.64728e-05 0.0
0.18783 -0.000356493 0.0
0.160399 -0.000287633 0.0
0.246452 -0.000499145 0.0
0.249999 -0.000537712 0.0
0.240138 -0.000508239 0.0
0.247576 -0.000559781 0.0
0.23986 -0.000507044 0.0
0.227293 -0.000469441 0.0
0.209731 -0.000417813 0.0
0.227722 -0.000493675 0.0
0.210288 -0.000436213 0.0
0 0 0.0
0.0478703 -3.72896e-05 0.0
0.128013 -0.000218118 0.0
0.0905046 -0.000120287 0.0
0.187172 -0.000353978 0.0
0.15962 -0.000277919 0.0
0.0471967 -3.28265e-05 0.0
0.127085 -0.000192798 0.0
0.0895897 -0.000107275 0.0
0 0 0.0
0.187905 -0.000400395 0.0
0.160488 -0.000321785 0.0
0.24742 -0.000565549 0.0
0.249998 -0.000605226 0.0
0.24017 -0.000572629 0.0
0.247593 -0.000628916 0.0
0.227247 -0.000527793 0.0
0.239828 -0.000570197 0.0
0.187097 -0.000397145 0.0
0.209669 -0.000469429 0.0
0.227762 -0.000541696 0.0
0.210352 -0.000490186 0.0
0 0 0.0
0.0479399 -4.08238e-05 0.0
0.128118 -0.000242397 0.0
0.090615 -0.000134789 0.0
0.126992 -0.000215985 0.0
0.159535 -0.00031156 0.0
0.0471373 -3.64233e-05 0.0
0.0895006 -0.000119234 0.0
0 0 0.0
0.187991 -0.0004471 0.0
0.160589 -0.000358652 0.0
0.247402 -0.000634046 0.0
0.249997 -0.000677529 0.0
0.227806 -0.000594159 0.0
0.24022 -0.000669498 0.0
0.24761 -0.000703715 0.0
0.227202 -0.000577132 0.0
0.239792 -0.000637956 0.0
0.187035 -0.000430323 0.0
0.209599 -0.000524524 0.0
0.210425 -0.000548067 0.0
0 0 0.0
0.0480218 -4.52833e-05 0.0
0.128254 -0.000272421 0.0
0.0907276 -0.000148628 0.0
0.126904 -0.000235917 0.0
0.159438 -0.000346767 0.0
0.0470652 -4.05299e-05 0.0
0.089402 -0.000131757 0.0
0 0 0.0
0.160701 -0.000397879 0.0
0.188112 -0.000509959 0.0
0.247382 -0.000707501 0.0
0.249996 -0.000755285 0.0
0.240254 -0.000731438 0.0
0.227889 -0.000687713 0.0
0.24763 -0.000783265 0.0
0.23975 -0.000710054 0.0
0.227155 -0.000631028 0.0
0.186943 -0.000478229 0.0
0.209521 -0.000582971 0.0
0.210506 -0.000611142 0.0
0 0 0.0
0.0481039 -4.98014e-05 0.0
0.128367 -0.000296801 0.0
0.0908516 -0.000163495 0.0
0.126791 -0.000261323 0.0
0.15933 -0.000384975 0.0
0 0 0.0
0.0892918 -0.00014613 0.0
0.0469922 -4.46858e-05 0.0
0.188222 -0.000568051 0.0
0.160827 -0.000441176 0.0
0.227946 -0.000750851 0.0
0.247359 -0.000787224 0.0
0.249994 -0.000839776 0.0
0.247647 -0.00085075 0.0
0.24029 -0.00079655 0.0
0.239704 -0.000788117 0.0
0.22709 -0.000700703 0.0
0.186814 -0.000542809 0.0
0.209434 -0.000646833 0.0
0.210598 -0.000679074 0.0
0 0 0.0
0.0481966 -5.44722e-05 0.0
0.0909746 -0.000177389 0.0
0.128513 -0.000326926 0.0
0.126644 -0.000293471 0.0
0.15921 -0.000426301 0.0
0 0 0.0
0.0469045 -4.94926e-05 0.0
0.0891837 -0.000159707 0.0
0.188315 -0.000613667 0.0
0.160969 -0.000488584 0.0
0.228006 -0.000819247 0.0
0.240359 -0.000922655 0.0
0.247333 -0.000873729 0.0
0.249992 -0.000931048 0.0
0.247666 -0.000922128 0.0
0.239651 -0.000872394 0.0
0.227017 -0.000776047 0.0
0.186727 -0.000585576 0.0
0.209337 -0.000714522 0.0
0.2107 -0.000754593 0.0
0 0 0.0
0.0482991 -5.91985e-05 0.0
0.128701 -0.000366107 0.0
0.0911406 -0.000196725 0.0
0.126525 -0.000320055 0.0
0.159077 -0.000471238 0.0
0.0468161 -5.4313e-05 0.0
0 0 0.0
0.0890378 -0.00017869 0.0
0.161126 -0.000540801 0.0
0.188485 -0.000697503 0.0
0.228121 -0.000943366 0.0
0.240415 -0.00102605 0.0
0.24769 -0.00102351 0.0
0.247288 -0.00100963 0.0
0.249987 -0.00103262 0.0
0.239593 -0.000965685 0.0
0.226907 -0.000885122 0.0
0.18657 -0.000661234 0.0
0.20923 -0.000788853 0.0
0.210813 -0.00083787 0.0
0 0 0.0
0.0484094 -6.39243e-05 0.0
0.0913072 -0.000213964 0.0
0.161303 -0.00059698 0.0
0.128858 -0.000396599 0.0
0.126371 -0.0003542 0.0
0.158961 -0.000510094 0.0
0.046712 -6.09675e-05 0.0
0 0 0.0
0.0889037 -0.00019675 0.0
0.210919 -0.000916551 0.0
0.188602 -0.000756031 0.0
0.240463 -0.0011147 0.0
0.228214 -0.00105164 0.0
0.247728 -0.00118544 0.0
0.249981 -0.00114206 0.0
0.247259 -0.00109059 0.0
0.239526 -0.00106442 0.0
0.22683 -0.000958243 0.0
0.186464 -0.000710721 0.0
0.158772 -0.000573949 0.0
0.209112 -0.000867157 0.0
0 0 0.0
0.0914743 -0.000232418 0.0
0.0485383 -6.98469e-05 0.0
0.16146 -0.000650086 0.0
0.129092 -0.000445668 0.0
0.126203 -0.000392416 0.0
0 0 0.0
0.0465962 -6.8335e-05 0.0
0.0887245 -0.000221486 0.0
0.211038 -0.00100223 0.0
0.188814 -0.000865888 0.0
0.240514 -0.00121117 0.0
0.228319 -0.00117158 0.0
0.247747 -0.00128685 0.0
0.24997 -0.0012635 0.0
0.247227 -0.00117948 0.0
0.158633 -0.000617284 0.0
0.209002 -0.000937802 0.0
0.23945 -0.00117008 0.0
0.226746 -0.00103676 0.0
0.186314 -0.00078111 0.0
0 0 0.0
0.0486639 -7.51836e-05 0.0
0.0916755 -0.000254776 0.0
0.16168 -0.000722815 0.0
0.129325 -0.000494461 0.0
0.0885426 -0.000246035 0.0
0.125989 -0.000440359 0.0
0 0 0.0
0.0464608 -7.72531e-05 0.0
0.211188 -0.00111803 0.0
0.189012 -0.000968156 0.0
0.240582 -0.00134632 0.0
0.228432 -0.00130762 0.0
0.247767 -0.00139631 0.0
0.249958 -0.00139796 0.0
0.247155 -0.00135483 0.0
0.15845 -0.000676522 0.0
0.239365 -0.00128604 0.0
0.208883 -0.00100982 0.0
0.226593 -0.00117427 0.0
0.186106 -0.000876391 0.0
0 0 0.0
0.0919259 -0.000285211 0.0
0.0488072 -8.24962e-05 0.0
0.161977 -0.000827246 0.0
0.129586 -0.000552621 0.0
0.0883646 -0.000270322 0.0
0.125786 -0.000486473 0.0
0 0 0.0
0.0463145 -8.70805e-05 0.0
0.18923 -0.00108831 0.0
0.211357 -0.00125251 0.0
0.240654 -0.00150159 0.0
0.247792 -0.0015469 0.0
0.228555 -0.00146203 0.0
0.249936 -0.00154268 0.0
0.247093 -0.00149454 0.0
0.239267 -0.0014081 0.0
0.249483 -0.00167142 0.0
0.158249 -0.000737557 0.0
0.226461 -0.00128338 0.0
0.208679 -0.00112914 0.0
0.18597 -0.000933729 0.0
0 0 0.0
0.0921597 -0.000316996 0.0
0.0489786 -9.21511e-05 0.0
0.162204 -0.000912849 0.0
0.129881 -0.000623699 0.0
0.0881494 -0.000298249 0.0
0.1256 -0.000525996 0.0
0 0 0.0
0.0461617 -9.68947e-05 0.0
0.189476 -0.00122859 0.0
0.211543 -0.00140888 0.0
0.240722 -0.00167264 0.0
0.228688 -0.00164253 0.0
0.247815 -0.00180378 0.0
0.249097 -0.00164078 0.0
0.243728 -0.00156428 0.0
0.233381 -0.0014469 0.0
0.249884 -0.00179427 0.0
0.158035 -0.000797799 0.0
0.218059 -0.00129646 0.0
0.203291 -0.00116843 0.0
0.185726 -0.00102843 0.0
0 0 0.0
0.0924496 -0.000361697 0.0
0.0491594 -0.000103204 0.0
0.162517 -0.0010398 0.0
0.130217 -0.00071338 0.0
0.125331 -0.000577561 0.0
0.0879154 -0.000326095 0.0
0 0 0.0
0.0459763 -0.000106724 0.0
0.18975 -0.00139673 0.0
0.211747 -0.00159181 0.0
0.247818 -0.00200371 0.0
0.228827 -0.00184844 0.0
0.240798 -0.00187213 0.0
0.246968 -0.00173245 0.0
0.239073 -0.00162264 0.0
0.226205 -0.00147304 0.0
0.249828 -0.00198262 0.0
0.157802 -0.000855391 0.0
0.208369 -0.00128931 0.0
0.185507 -0.00110291 0.0
0 0 0.0
0.0493596 -0.000117854 0.0
0.0927835 -0.000420411 0.0
0.130542 -0.000807414 0.0
0.190053 -0.00159528 0.0
0.162872 -0.00119492 0.0
0.125079 -0.000617475 0.0
0.0876641 -0.00035165 0.0
0.0457808 -0.000116711 0.0
0 0 0.0
0.228948 -0.00204454 0.0
0.211969 -0.0018094 0.0
0.247816 -0.00217991 0.0
0.240864 -0.00210161 0.0
0.226019 -0.00159031 0.0
0.246859 -0.0019001 0.0
0.23892 -0.00176674 0.0
0.249755 -0.00219076 0.0
0.185272 -0.0011683 0.0
0.157504 -0.00091023 0.0
0.208088 -0.00140857 0.0
0 0 0.0
0.0496042 -0.000140896 0.0
0.0932187 -0.000502157 0.0
0.130975 -0.000944127 0.0
0.190301 -0.00177595 0.0
0.163355 -0.00143392 0.0
0.124816 -0.000647898 0.0
0.0873754 -0.00037256 0.0
0.0455751 -0.000124078 0.0
0 0 0.0
0.12454 -0.000666209 0.0
0.229069 -0.00225694 0.0
0.212283 -0.00215456 0.0
0.240947 -0.0024794 0.0
0.247801 -0.00236897 0.0
0.225723 -0.00175012 0.0
0.238742 -0.00191623 0.0
0.246727 -0.00208372 0.0
0.249649 -0.00242231 0.0
0.185012 -0.00122391 0.0
0.157232 -0.000946126 0.0
0.207838 -0.00149647 0.0
0 0 0.0
0.0498949 -0.000167239 0.0
0.0936888 -0.000599513 0.0
0.131473 -0.00111569 0.0
0.190664 -0.0020481 0.0
0.163819 -0.00167927 0.0
0.0453546 -0.000131556 0.0
0.0870984 -0.0003863 0.0
0 0 0.0
0.124299 -0.000666395 0.0
0.229217 -0.00256687 0.0
0.212543 -0.00247162 0.0
0.240987 -0.00279239 0.0
0.247756 -0.00264766 0.0
0.225502 -0.00185116 0.0
0.238529 -0.00207362 0.0
0.249512 -0.00267908 0.0
0.246476 -0.00237627 0.0
0.184795 -0.00125411 0.0
0.156942 -0.000962121 0.0
0.207554 -0.00157202 0.0
0 0 0.0
0.0502429 -0.000202529 0.0
0.094247 -0.000718541 0.0
0.132142 -0.00135834 0.0
0.191159 -0.00246431 0.0
0.212816 -0.00284493 0.0
0.164337 -0.00197597 0.0
0.0451453 -0.000133381 0.0
0.0868234 -0.000389109 0.0
0 0 0.0
0.124012 -0.000652 0.0
0.22941 -0.0030501 0.0
0.241006 -0.00308013 0.0
0.247684 -0.00296013 0.0
0.249377 -0.00289374 0.0
0.225257 -0.00194439 0.0
0.238263 -0.00224477 0.0
0.246242 -0.00259817 0.0
0.156633 -0.000956962 0.0
0.18448 -0.00128256 0.0
0.207224 -0.0016386 0.0
0 0 0.0
0.0506912 -0.000247446 0.0
0.0949155 -0.000868283 0.0
0.13283 -0.00162079 0.0
0.191486 -0.00276462 0.0
0.213095 -0.00326799 0.0
0.164923 -0.00232638 0.0
0.0449254 -0.000133318 0.0
0.0865558 -0.000379602 0.0
0 0 0.0
0.15637 -0.000931051 0.0
0.0863095 -0.000354346 0.0
0.123683 -0.000610701 0.0
0.229539 -0.00349474 0.0
0.241003 -0.00338589 0.0
0.247507 -0.00348217 0.0
0.249219 -0.00311904 0.0
0.246029 -0.00278839 0.0
0.224908 -0.00205768 0.0
0.237811 -0.00249352 0.0
0.18403 -0.00128834 0.0
0.206905 -0.00169108 0.0
0.229641 -0.00388796 0.0
0 0 0.0
0.051206 -0.000299451 0.0
0.133633 -0.00193194 0.0
0.0957073 -0.0010471 0.0
0.213388 -0.00376952 0.0
0.192075 -0.00333964 0.0
0.165581 -0.00273619 0.0
0.0447086 -0.000125021 0.0
0 0 0.0
0.183719 -0.00128093 0.0
0.15602 -0.000884663 0.0
0.123407 -0.000558427 0.0
0.0445027 -0.000121096 0.0
0.0860837 -0.000320299 0.0
0.240977 -0.00382657 0.0
0.247364 -0.00380408 0.0
0.248946 -0.00345408 0.0
0.248702 -0.00373543 0.0
0.24577 -0.00298577 0.0
0.224488 -0.00217567 0.0
0.237388 -0.00268633 0.0
0.206538 -0.00172447 0.0
0.229711 -0.00432813 0.0
0.0517953 -0.000358659 0.0
0 0 0.0
0.134411 -0.00223113 0.0
0.0966422 -0.00124976 0.0
0.213681 -0.00433565 0.0
0.192456 -0.00374118 0.0
0.166327 -0.00321172 0.0
0 0 0.0
0.183275 -0.00124705 0.0
0.155576 -0.000800805 0.0
0.123185 -0.000491061 0.0
0.0443398 -0.000110247 0.0
0.0858881 -0.000277839 0.0
0.240861 -0.00454628 0.0
0.247194 -0.00414563 0.0
0.248405 -0.00402982 0.0
0.24518 -0.0033897 0.0
0.224 -0.00228687 0.0
0.236903 -0.00288767 0.0
0.20589 -0.00177245 0.0
0.229794 -0.00493452 0.0
0 0 0.0
0.0525349 -0.000431236 0.0
0.135459 -0.00263193 0.0
0.0976376 -0.00146212 0.0
0.167162 -0.00374665 0.0
0.213977 -0.00498355 0.0
0.193154 -0.0044913 0.0
0 0 0.0
0 0 0.0
0.182759 -0.00120535 0.0
0.155182 -0.000716658 0.0
0.12294 -0.000408771 0.0
0.085737 -0.00022976 0.0
0.0441928 -9.68228e-05 0.0
0.240713 -0.00513443 0.0
0.246899 -0.00464611 0.0
0.236437 -0.00306433 0.0
0.247943 -0.00446541 0.0
0.244644 -0.00371477 0.0
0.223414 -0.00240672 0.0
0.205285 -0.00179995 0.0
0.240551 -0.00566414 0.0
0.229822 -0.00561634 0.0
0.0534176 -0.000513628 0.0
0.0989165 -0.00172209 0.0
0.136669 -0.00308921 0.0
0.167915 -0.00423676 0.0
0.214281 -0.00570444 0.0
0.193598 -0.00501733 0.0
0 0 0.0
0 0 0.0
0.154852 -0.000637356 0.0
0.182048 -0.00113347 0.0
0.0856378 -0.000179385 0.0
0.122682 -0.00030704 0.0
0.0440601 -8.39534e-05 0.0
0.246348 -0.00544871 0.0
0.247367 -0.00495493 0.0
0.204606 -0.00182472 0.0
0.235907 -0.0032446 0.0
0.244173 -0.00399016 0.0
0.222477 -0.00257437 0.0
0.240348 -0.0062148 0.0
0.22983 -0.00666255 0.0
0.214577 -0.00651707 0.0
0.0545141 -0.000614569 0.0
0.100402 -0.00202614 0.0
0.138285 -0.00367988 0.0
0.168959 -0.00489719 0.0
0.194421 -0.00597888 0.0
0 0 0.0
0 0 0.0
0.154343 -0.000523086 0.0
0.181393 -0.00108537 0.0
0.0855746 -0.000121498 0.0
0.122491 -0.000222113 0.0
0.0439709 -6.84408e-05 0.0
0.243626 -0.00428781 0.0
0.246688 -0.00548333 0.0
0.245827 -0.00610599 0.0
0.203825 -0.00185514 0.0
0.235144 -0.00349924 0.0
0.221637 -0.00272831 0.0
0.180688 -0.00104501 0.0
0.239862 -0.00732216 0.0
0 0 0.0
0.229747 -0.00755886 0.0
0.195141 -0.00686059 0.0
0.214866 -0.00741087 0.0
0.0556878 -0.000718585 0.0
0.139674 -0.00418323 0.0
0.102315 -0.00241244 0.0
0.170374 -0.0058194 0.0
0 0 0.0
0 0 0.0
0 0 0.0
0 0 0.0
0 0 0.0
0.0439167 -5.56998e-05 0.0
0.122333 -0.000148394 0.0
0.153898 -0.000444293 0.0
0.0855371 -8.49607e-05 0.0
0.24281 -0.00469204 0.0
0.245875 -0.00607725 0.0
0.245222 -0.0068239 0.0
0.220857 -0.00284897 0.0
0.202936 -0.00189961 0.0
0.233856 -0.00389853 0.0
0.202104 -0.0019497 0.0
0.180104 -0.00102402 0.0
0.239387 -0.00822954 0.0
0.229626 -0.00852581 0.0
0 0 0.0
9.42913e-05 -3.54493e-05 0.0
0 0 0.0
-0.000408408 0.00256202 0.0
0.215161 -0.00841746 0.0
0.195733 -0.007575 0.0
0.0571982 -0.000856662 0.0
0.141488 -0.00483004 0.0
0.104332 -0.00281611 0.0
0.171732 -0.00669169 0.0
0 0 0.0
0 0 0.0
0 0 0.0
-0.000312538 0.00145687 0.0
-4.50504e-05 -7.04648e-05 0.0
-1.12811e-05 -9.25229e-06 0.0
0 0 0.0
0.0438619 -4.9302e-05 0.0
0.122206 -9.82618e-05 0.0
0.153437 -0.000388103 0.0
0.085538 -5.41185e-05 0.0
0.241863 -0.00515211 0.0
0.244926 -0.00672912 0.0
0.244486 -0.00761051 0.0
0.219988 -0.00300015 0.0
0.23299 -0.00417131 0.0
0.201193 -0.00201287 0.0
0.179075 -0.0010295 0.0
0.23883 -0.00921301 0.0
0.232245 -0.0094649 0.0
0.223017 -0.00946173 0.0
0 0 0.0
9.08543e-05 2.44892e-05 0.0
0 0 0.0
0 0 0.0
-0.00142841 0.00561513 0.0
-0.00141634 0.00379001 0.0
0.211124 -0.00922444 0.0
0.196563 -0.00863115 0.0
0.106414 -0.00323721 0.0
0.0588038 -0.00101584 0.0
0.143539 -0.00557704 0.0
0.173224 -0.00767067 0.0
0 0 0.0
-0.000549235 0.000797559 0.0
-0.000992332 0.0020457 0.0
-0.000379544 0.00035128 0.0
-0.000379612 0.000325493 0.0
0 0 0.0
0.0438227 -4.66295e-05 0.0
0.12208 -6.73676e-05 0.0
0.152967 -0.00035417 0.0
0.085556 -4.40101e-05 0.0
0.240762 -0.00565626 0.0
0.243828 -0.00743891 0.0
0.243614 -0.00847159 0.0
0.218371 -0.00329006 0.0
0.232033 -0.00445182 0.0
0.200015 -0.00213305 0.0
0.152501 -0.000375062 0.0
0.178179 -0.00108291 0.0
0.238292 -0.0100597 0.0
0.229269 -0.0103719 0.0
0.215617 -0.0104031 0.0
0 0 0.0
-0.000276239 0.000174581 0.0
0 0 0.0
0 0 0.0
0 0 0.0
0 0 0.0
-0.00260166 0.00401902 0.0
-0.000382509 0.00473631 0.0
-0.00143001 0.00716294 0.0
-0.00335999 0.00934177 0.0
-0.00290386 0.00651489 0.0
0 0 0.0
-3.84642e-05 0.00666206 0.0
0.197669 -0.0101591 0.0
0.174538 -0.00857716 0.0
0 0 0.0
0.0608986 -0.00123797 0.0
0.109046 -0.00380084 0.0
0.146235 -0.00664053 0.0
0 0 0.0
0 0 0.0
-0.00163081 0.00202343 0.0
-0.00131023 0.00117443 0.0