# vtk DataFile Version 3.0
Mesh NS-CD Problem
ASCII
DATASET UNSTRUCTURED_GRID
POINTS 10839 float
-2 0.3 0.0
-2 0.4 0.0
-2 0.35 0.0
-2 0.45 0.0
-2 0.5 0.0
-2 0.55 0.0
-2 0 0.0
-2 0.05 0.0
-2 0.85 0.0
-2 0.9 0.0
-2 0.1 0.0
-2 0.15 0.0
-2 0.25 0.0
-2 0.2 0.0
-1.96653 0.266667 0.0
-1.96524 0.415385 0.0
-1.96485 0.315 0.0
-1.96348 0.363636 0.0
-1.96414 0.464286 0.0
-2 0.6 0.0
-1.96538 0.584615 0.0
-1.96538 0.538462 0.0
-1.94979 0 0.0
-1.96653 0.0666666 0.0
-1.93306 0.0333333 0.0
-2 0.8 0.0
-2 0.75 0.0
-2 0.7 0.0
-2 0.65 0.0
-1.96249 0.7375 0.0
-1.96666 0.833333 0.0
-2 1 0.0
-2 0.95 0.0
-1.96249 0.8875 0.0
-1.96666 0.933333 0.0
-1.96234 0.1125 0.0
-1.96653 0.166667 0.0
-1.93724 0.225 0.0
-1.92971 0.28 0.0
-1.93048 0.380769 0.0
-1.93048 0.423077 0.0
-1.89958 0.3375 0.0
-1.9292 0.484203 0.0
-1.92117 0.530907 0.0
-1.96363 0.636364 0.0
-1.93076 0.576923 0.0
-1.89958 0 0.0
-1.88703 0.0375 0.0
-1.90963 0.08 0.0
-1.86611 0.0666666 0.0
-1.93749 0.775 0.0
-1.93635 0.672727 0.0
-1.92999 0.72 0.0
-1.93332 0.866667 0.0
-1.92856 0.821429 0.0
-1.94999 1 0.0
-1.92499 0.9625 0.0
-1.92499 0.925 0.0
-1.89998 0.9 0.0
-1.89958 0.125 0.0
-1.92827 0.178571 0.0
-1.89958 0.233333 0.0
-1.89045 0.290909 0.0
-1.86096 0.311538 0.0
-1.89241 0.392857 0.0
-1.89334 0.448489 0.0
-1.85655 0.357143 0.0
-1.89614 0.653846 0.0
-1.89427 0.504121 0.0
-1.8952 0.559753 0.0
-1.89614 0.615385 0.0
-1.84937 0 0.0
-1.83264 0.0333333 0.0
-1.85655 0.107143 0.0
-1.81172 0.075 0.0
-1.89998 0.766667 0.0
-1.89089 0.709091 0.0
-1.87498 0.85 0.0
-1.85998 0.79 0.0
-1.88748 0.8125 0.0
-1.89998 1 0.0
-1.88748 0.9625 0.0
-1.86664 0.933333 0.0
-1.85712 0.892857 0.0
-1.87448 0.15 0.0
-1.86611 0.194444 0.0
-1.83264 0.133333 0.0
-1.83264 0.2625 0.0
-1.82068 0.321429 0.0
-1.85664 0.404762 0.0
-1.85674 0.452381 0.0
-1.85683 0.5 0.0
-1.81184 0.375 0.0
-1.85712 0.642857 0.0
-1.85693 0.547619 0.0
-1.85702 0.595238 0.0
-1.79917 0 0.0
-1.78482 0.0357143 0.0
-1.79917 0.116667 0.0
-1.76569 0.0666666 0.0
-1.85452 0.745455 0.0
-1.82689 0.692308 0.0
-1.81815 0.781818 0.0
-1.82497 0.825 0.0
-1.84997 1 0.0
-1.8333 0.958333 0.0
-1.81247 0.8875 0.0
-1.81247 0.925 0.0
-1.81742 0.218182 0.0
-1.82427 0.175 0.0
-1.77634 0.145455 0.0
-1.79144 0.242308 0.0
-1.78482 0.285714 0.0
-1.77469 0.332653 0.0
-1.81215 0.529762 0.0
-1.81194 0.422619 0.0
-1.81203 0.470238 0.0
-1.76714 0.392857 0.0
-1.81234 0.625 0.0
-1.79732 0.571429 0.0
-1.74896 0 0.0
-1.73222 0.0333333 0.0
-1.75398 0.105 0.0
-1.71883 0.07 0.0
-1.79227 0.730769 0.0
-1.78007 0.679121 0.0
-1.75765 0.769231 0.0
-1.78178 0.818182 0.0
-1.78996 0.86 0.0
-1.79996 1 0.0
-1.78568 0.964286 0.0
-1.76663 0.922222 0.0
-1.76569 0.1875 0.0
-1.73222 0.15 0.0
-1.74896 0.25 0.0
-1.73714 0.304762 0.0
-1.76743 0.537202 0.0
-1.72869 0.343878 0.0
-1.76732 0.485119 0.0
-1.76723 0.440476 0.0
-1.72243 0.410714 0.0
-1.76757 0.607143 0.0
-1.69875 0 0.0
-1.68369 0.035 0.0
-1.69875 0.1125 0.0
-1.66528 0.075 0.0
-1.74341 0.708974 0.0
-1.73324 0.665934 0.0
-1.70441 0.74478 0.0
-1.71423 0.785714 0.0
-1.72303 0.826923 0.0
-1.74541 0.854545 0.0
-1.74541 0.890909 0.0
-1.74996 1 0.0
-1.73745 0.9625 0.0
-1.71359 0.927273 0.0
-1.68716 0.153846 0.0
-1.7131 0.214286 0.0
-1.70725 0.275 0.0
-1.69712 0.321939 0.0
-1.72279 0.589286 0.0
-1.72261 0.5 0.0
-1.7227 0.544643 0.0
-1.6827 0.355102 0.0
-1.67773 0.428571 0.0
-1.70763 0.464286 0.0
-1.70369 0.62449 0.0
-1.64854 0 0.0
-1.63181 0.0375 0.0
-1.64137 0.142857 0.0
-1.61764 0.0769231 0.0
-1.69458 0.703846 0.0
-1.67471 0.657437 0.0
-1.66143 0.727637 0.0
-1.67125 0.768571 0.0
-1.67851 0.821429 0.0
-1.68841 0.861538 0.0
-1.70904 0.890909 0.0
-1.69995 1 0.0
-1.68176 0.963636 0.0
-1.67267 0.927273 0.0
-1.65427 0.187143 0.0
-1.66718 0.231429 0.0
-1.66554 0.3 0.0
-1.67802 0.571429 0.0
-1.67792 0.523809 0.0
-1.6367 0.366327 0.0
-1.63682 0.423469 0.0
-1.62568 0.502976 0.0
-1.6629 0.470238 0.0
-1.65254 0.618367 0.0
-1.6059 0.307143 0.0
-1.59833 0 0.0
-1.58288 0.0384615 0.0
-1.60563 0.169643 0.0
-1.58179 0.112271 0.0
-1.56964 0.0714286 0.0
-1.64574 0.690385 0.0
-1.62827 0.751429 0.0
-1.63371 0.791071 0.0
-1.64279 0.857143 0.0
-1.65378 0.896154 0.0
-1.64994 1 0.0
-1.6363 0.963636 0.0
-1.61916 0.930769 0.0
-1.61345 0.209107 0.0
-1.62126 0.248571 0.0
-1.56989 0.196429 0.0
-1.63324 0.553571 0.0
-1.58846 0.535714 0.0
-1.59408 0.361905 0.0
-1.59161 0.402211 0.0
-1.58832 0.464286 0.0
-1.61504 0.598581 0.0
-1.59683 0.64359 0.0
-1.57899 0.274107 0.0
-1.56176 0.322381 0.0
-1.54812 0 0.0
-1.53378 0.0357143 0.0
-1.54593 0.147619 0.0
-1.53385 0.0732143 0.0
-1.53393 0.110714 0.0
-1.58522 0.704286 0.0
-1.58709 0.745 0.0
-1.58896 0.785714 0.0
-1.60695 0.830357 0.0
-1.60707 0.892857 0.0
-1.59993 1 0.0
-1.58454 0.965385 0.0
-1.57135 0.928571 0.0
-1.55209 0.241071 0.0
-1.5291 0.198214 0.0
-1.56936 0.570918 0.0
-1.54369 0.517857 0.0
-1.5464 0.380952 0.0
-1.54564 0.427721 0.0
-1.54488 0.47449 0.0
-1.55026 0.606122 0.0
-1.54222 0.677143 0.0
-1.52943 0.282857 0.0
-1.52143 0.33619 0.0
-1.49792 0 0.0
-1.49802 0.05 0.0
-1.49822 0.15 0.0
-1.49312 0.1 0.0
-1.5423 0.717143 0.0
-1.54419 0.767857 0.0
-1.54727 0.819048 0.0
-1.57122 0.861905 0.0
-1.53553 0.914286 0.0
-1.54992 1 0.0
-1.53563 0.964286 0.0
-1.49842 0.25 0.0
-1.48831 0.2 0.0
-1.5214 0.558929 0.0
-1.49891 0.5 0.0
-1.49871 0.4 0.0
-1.47631 0.45 0.0
-1.49911 0.6 0.0
-1.49921 0.65 0.0
-1.49931 0.7 0.0
-1.48111 0.35 0.0
-1.48351 0.3 0.0
-1.44771 0 0.0
-1.44782 0.05 0.0
-1.44804 0.15 0.0
-1.44793 0.1 0.0
-1.49941 0.75 0.0
-1.49951 0.8 0.0
-1.49981 0.95 0.0
-1.49961 0.85 0.0
-1.49971 0.9 0.0
-1.49991 1 0.0
-1.44826 0.25 0.0
-1.43815 0.2 0.0
-1.47151 0.55 0.0
-1.44881 0.5 0.0
-1.44859 0.4 0.0
-1.42619 0.45 0.0
-1.44913 0.65 0.0
-1.44902 0.6 0.0
-1.44935 0.75 0.0
-1.44924 0.7 0.0
-1.43972 0.35 0.0
-1.43336 0.3 0.0
-1.3975 0 0.0
-1.39762 0.05 0.0
-1.39786 0.15 0.0
-1.39274 0.1 0.0
-1.44957 0.85 0.0
-1.44946 0.8 0.0
-1.4523 0.95 0.0
-1.44968 0.9 0.0
-1.4499 1 0.0
-1.3981 0.25 0.0
-1.38798 0.2 0.0
-1.42141 0.55 0.0
-1.3987 0.5 0.0
-1.39834 0.35 0.0
-1.37845 0.4 0.0
-1.37607 0.45 0.0
-1.40784 0.65 0.0
-1.39894 0.6 0.0
-1.41185 0.75 0.0
-1.39918 0.7 0.0
-1.38322 0.3 0.0
-1.34729 0 0.0
-1.34492 0.05 0.0
-1.34018 0.15 0.0
-1.34255 0.1 0.0
-1.40707 0.85 0.0
-1.39941 0.8 0.0
-1.39977 0.95 0.0
-1.39965 0.9 0.0
-1.39989 1 0.0
-1.33781 0.2 0.0
-1.33544 0.25 0.0
-1.37131 0.55 0.0
-1.34859 0.5 0.0
-1.33833 0.4 0.0
-1.3307 0.35 0.0
-1.32595 0.45 0.0
-1.34885 0.6 0.0
-1.36655 0.65 0.0
-1.36179 0.75 0.0
-1.34911 0.7 0.0
-1.33307 0.3 0.0
-1.29708 0 0.0
-1.29722 0.05 0.0
-1.2975 0.15 0.0
-1.29236 0.1 0.0
-1.35703 0.85 0.0
-1.34937 0.8 0.0
-1.34988 1 0.0
-1.34962 0.9 0.0
-1.35226 0.95 0.0
-1.28528 0.25 0.0
-1.28764 0.2 0.0
-1.28931 0.35 0.0
-1.32121 0.55 0.0
-1.29848 0.5 0.0
-1.28709 0.45 0.0
-1.2982 0.4 0.0
-1.29876 0.6 0.0
-1.31647 0.65 0.0
-1.29918 0.75 0.0
-1.29904 0.7 0.0
-1.28292 0.3 0.0
-1.24687 0 0.0
-1.24702 0.05 0.0
-1.24717 0.1 0.0
-1.24732 0.15 0.0
-1.29946 0.85 0.0
-1.29932 0.8 0.0
-1.29987 1 0.0
-1.29974 0.95 0.0
-1.30462 0.9 0.0
-1.24762 0.25 0.0
-1.23747 0.2 0.0
-1.24792 0.35 0.0
-1.22807 0.4 0.0
-1.27111 0.55 0.0
-1.24837 0.5 0.0
-1.24822 0.45 0.0
-1.24867 0.6 0.0
-1.26639 0.65 0.0
-1.26167 0.75 0.0
-1.24897 0.7 0.0
-1.23277 0.3 0.0
-1.19667 0 0.0
-1.19683 0.05 0.0
-1.18964 0.15 0.0
-1.19198 0.1 0.0
-1.25695 0.85 0.0
-1.24927 0.8 0.0
-1.25223 0.95 0.0
-1.24987 1 0.0
-1.24957 0.9 0.0
-1.1873 0.2 0.0
-1.18496 0.25 0.0
-1.18028 0.35 0.0
-1.17794 0.4 0.0
-1.1981 0.45 0.0
-1.19842 0.55 0.0
-1.19826 0.5 0.0
-1.19858 0.6 0.0
-1.19874 0.65 0.0
-1.19906 0.75 0.0
-1.1989 0.7 0.0
-1.18262 0.3 0.0
-1.14646 0 0.0
-1.14663 0.05 0.0
-1.1418 0.1 0.0
-1.13713 0.2 0.0
-1.14697 0.15 0.0
-1.20691 0.85 0.0
-1.20926 0.8 0.0
-1.20221 0.95 0.0
-1.19986 1 0.0
-1.20456 0.9 0.0
-1.13997 0.3 0.0
-1.14731 0.25 0.0
-1.13781 0.4 0.0
-1.13014 0.35 0.0
-1.12548 0.45 0.0
-1.14815 0.5 0.0
-1.15962 0.55 0.0
-1.14849 0.6 0.0
-1.15745 0.65 0.0
-1.16155 0.75 0.0
-1.14917 0.8 0.0
-1.14883 0.7 0.0
-1.09625 0 0.0
-1.09661 0.1 0.0
-1.09393 0.05 0.0
-1.09697 0.2 0.0
-1.08929 0.15 0.0
-1.15687 0.85 0.0
-1.14985 1 0.0
-1.15219 0.95 0.0
-1.14951 0.9 0.0
-1.09733 0.3 0.0
-1.08465 0.25 0.0
-1.09769 0.4 0.0
-1.08 0.35 0.0
-1.08661 0.45 0.0
-1.09804 0.5 0.0
-1.12082 0.55 0.0
-1.10916 0.8 0.0
-1.10629 0.7 0.0
-1.0984 0.6 0.0
-1.11616 0.65 0.0
-1.11149 0.75 0.0
-1.04604 0 0.0
-1.04623 0.05 0.0
-1.04642 0.1 0.0
-1.0468 0.2 0.0
-1.03911 0.15 0.0
-1.09948 0.9 0.0
-1.0993 0.85 0.0
-1.09984 1 0.0
-1.09966 0.95 0.0
-1.04718 0.3 0.0
-1.03449 0.25 0.0
-1.04756 0.4 0.0
-1.02986 0.35 0.0
-1.04775 0.45 0.0
-1.04794 0.5 0.0
-1.04813 0.55 0.0
-1.05911 0.8 0.0
-1.04831 0.6 0.0
-1.06376 0.7 0.0
-1.0485 0.65 0.0
-1.04888 0.75 0.0
-0.995833 0 0.0
-0.991231 0.1 0.0
-0.996033 0.05 0.0
-0.986629 0.2 0.0
-0.98893 0.15 0.0
-1.05447 0.9 0.0
-1.04926 0.85 0.0
-1.04983 1 0.0
-1.04964 0.95 0.0
-0.984328 0.25 0.0
-0.99703 0.3 0.0
-0.997429 0.4 0.0
-0.997628 0.45 0.0
-0.979726 0.35 0.0
-0.997827 0.5 0.0
-0.998027 0.55 0.0
-0.998226 0.6 0.0
-0.961416 0.475 0.0
-1.00907 0.8 0.0
-0.998426 0.65 0.0
-0.998625 0.7 0.0
-1.01138 0.75 0.0
-0.945625 0 0.0
-0.946044 0.1 0.0
-0.943334 0.05 0.0
-0.946463 0.2 0.0
-0.938752 0.15 0.0
-1.00444 0.9 0.0
-1.00675 0.85 0.0
-0.999821 1 0.0
-1.00213 0.95 0.0
-0.93417 0.25 0.0
-0.946881 0.3 0.0
-0.9473 0.4 0.0
-0.929588 0.35 0.0
-0.925005 0.45 0.0
-0.960371 0.525 0.0
-0.959325 0.575 0.0
-0.958279 0.625 0.0
-0.922714 0.5 0.0
-0.959017 0.8 0.0
-0.957233 0.675 0.0
-0.952999 0.7125 0.0
-0.948766 0.75 0.0
-0.895417 0 0.0
-0.895855 0.1 0.0
-0.893136 0.05 0.0
-0.896294 0.2 0.0
-0.888573 0.15 0.0
-0.949184 0.85 0.0
-0.954415 0.9 0.0
-0.949812 1 0.0
-0.949603 0.95 0.0
-0.884011 0.25 0.0
-0.896733 0.3 0.0
-0.874887 0.45 0.0
-0.879449 0.35 0.0
-0.897171 0.4 0.0
-0.920423 0.55 0.0
-0.918132 0.6 0.0
-0.915841 0.65 0.0
-0.872606 0.5 0.0
-0.908968 0.8 0.0
-0.91355 0.7 0.0
-0.898707 0.75 0.0
-0.845208 0 0.0
-0.845438 0.05 0.0
-0.845667 0.1 0.0
-0.845896 0.15 0.0
-0.833853 0.25 0.0
-0.846126 0.2 0.0
-0.899146 0.85 0.0
-0.904386 0.9 0.0
-0.899584 0.95 0.0
-0.899804 1 0.0
-0.838062 0.35 0.0
[...]
POINT_DATA 10839
VECTORS Velocity float
0.21 0 0.0
0.24 0 0.0
0.2275 0 0.0
0.2475 0 0.0
0.25 0 0.0
0.2475 0 0.0
0 0 0.0
0.0475 0 0.0
0.1275 0 0.0
0.09 0 0.0
0.09 0 0.0
0.1275 0 0.0
0.1875 0 0.0
0.16 0 0.0
0.195557 -2.41617e-05 0.0
0.242841 -3.28649e-05 0.0
0.215776 -2.87197e-05 0.0
0.231406 -3.2346e-05 0.0
0.248725 -3.49778e-05 0.0
0.24 0 0.0
0.24284 -3.27882e-05 0.0
0.24852 -3.36861e-05 0.0
0 0 0.0
0.0622239 -4.27128e-06 0.0
0.0322271 -2.82465e-06 0.0
0.16 0 0.0
0.1875 0 0.0
0.21 0 0.0
0.2275 0 0.0
0.193592 -2.71146e-05 0.0
0.138887 -1.51274e-05 0.0
0 0 0.0
0.0475 0 0.0
0.0998415 -1.05492e-05 0.0
0.0622205 -4.32024e-06 0.0
0.0998462 -1.10184e-05 0.0
0.138891 -1.52587e-05 0.0
0.17438 -3.80769e-05 0.0
0.201605 -5.2051e-05 0.0
0.235787 -6.34363e-05 0.0
0.244085 -6.63486e-05 0.0
0.223602 -8.49711e-05 0.0
0.249751 -6.92964e-05 0.0
0.249044 -7.71872e-05 0.0
0.231404 -3.28625e-05 0.0
0.244081 -6.55607e-05 0.0
0 0 0.0
0.0361083 -5.43795e-06 0.0
0.0736128 -1.51577e-05 0.0
0.0622494 -1.65843e-05 0.0
0.17437 -3.75204e-05 0.0
0.220162 -5.19928e-05 0.0
0.201594 -5.21203e-05 0.0
0.115548 -2.26005e-05 0.0
0.146676 -3.49085e-05 0.0
0 0 0.0
0.0360873 -3.67667e-06 0.0
0.069366 -1.18792e-05 0.0
0.0899834 -2.34765e-05 0.0
0.109391 -3.16873e-05 0.0
0.146691 -3.42292e-05 0.0
0.178902 -6.37057e-05 0.0
0.206293 -8.31457e-05 0.0
0.214501 -0.000111854 0.0
0.238527 -9.9261e-05 0.0
0.24735 -0.000103323 0.0
0.229607 -0.000126195 0.0
0.226323 -8.92418e-05 0.0
0.249983 -0.000103822 0.0
0.246426 -0.000101021 0.0
0.23668 -9.51534e-05 0.0
0 0 0.0
0.0322509 -6.1338e-06 0.0
0.0956967 -3.59321e-05 0.0
0.0694295 -2.70716e-05 0.0
0.178876 -6.27338e-05 0.0
0.206269 -8.37573e-05 0.0
0.127476 -4.84564e-05 0.0
0.165873 -7.92827e-05 0.0
0.152325 -5.69093e-05 0.0
0 0 0.0
0.0360794 -5.2694e-06 0.0
0.0621955 -1.64188e-05 0.0
0.0956298 -3.66328e-05 0.0
0.127525 -4.89157e-05 0.0
0.156661 -7.0909e-05 0.0
0.115601 -5.60765e-05 0.0
0.193626 -0.000116553 0.0
0.218141 -0.000147283 0.0
0.24094 -0.0001344 0.0
0.247737 -0.000139343 0.0
0.25 -0.000140847 0.0
0.234398 -0.000170343 0.0
0.229577 -0.000124426 0.0
0.247727 -0.000139024 0.0
0.24092 -0.000134138 0.0
0 0 0.0
0.0344877 -8.47414e-06 0.0
0.103121 -5.50419e-05 0.0
0.0623033 -2.73987e-05 0.0
0.189727 -9.91566e-05 0.0
0.212989 -0.00013818 0.0
0.170534 -0.000107286 0.0
0.14433 -7.97483e-05 0.0
0 0 0.0
0.0398977 -9.04144e-06 0.0
0.0997862 -5.01145e-05 0.0
0.0693209 -2.66521e-05 0.0
0.170624 -0.00010742 0.0
0.144421 -8.14824e-05 0.0
0.124377 -8.25165e-05 0.0
0.183649 -0.000135569 0.0
0.204131 -0.00016215 0.0
0.222038 -0.000190736 0.0
0.249109 -0.00018458 0.0
0.244026 -0.000179716 0.0
0.24912 -0.000184605 0.0
0.23855 -0.000216463 0.0
0.234353 -0.000169291 0.0
0.244883 -0.000194469 0.0
0 0 0.0
0.0322924 -8.96335e-06 0.0
0.094074 -5.77941e-05 0.0
0.0652174 -3.45933e-05 0.0
0.196696 -0.000148124 0.0
0.217872 -0.000181755 0.0
0.177438 -0.000150217 0.0
0.14869 -0.000105079 0.0
0.120329 -7.37168e-05 0.0
0 0 0.0
0.0343903 -8.57188e-06 0.0
0.0716441 -3.47776e-05 0.0
0.152424 -0.000117757 0.0
0.127614 -0.000102268 0.0
0.187578 -0.000167805 0.0
0.21195 -0.000208785 0.0
0.248605 -0.000228728 0.0
0.225685 -0.000236387 0.0
0.249783 -0.000230405 0.0
0.246474 -0.000226564 0.0
0.242064 -0.000264747 0.0
0.23849 -0.000215776 0.0
0 0 0.0
0.0338747 -1.12167e-05 0.0
0.0999924 -7.70019e-05 0.0
0.0695447 -4.59875e-05 0.0
0.206261 -0.000195426 0.0
0.222405 -0.000227613 0.0
0.189976 -0.000202839 0.0
0.168255 -0.000164031 0.0
0.143004 -0.00012603 0.0
0.124194 -9.32021e-05 0.0
0.0970843 -6.27375e-05 0.0
0 0 0.0
0.0360204 -1.0898e-05 0.0
0.0673149 -3.72338e-05 0.0
0.130333 -0.000123375 0.0
0.168481 -0.000164887 0.0
0.199472 -0.000214889 0.0
0.218378 -0.000251979 0.0
0.241992 -0.000265266 0.0
0.25 -0.000276914 0.0
0.247989 -0.000273665 0.0
0.22908 -0.00028411 0.0
0.244937 -0.00031475 0.0
0.24874 -0.000290465 0.0
0.234446 -0.000271609 0.0
0 0 0.0
0.0362329 -1.44424e-05 0.0
0.122657 -0.000126243 0.0
0.0712283 -5.43325e-05 0.0
0.208351 -0.000238527 0.0
0.225127 -0.00028354 0.0
0.198049 -0.000247382 0.0
0.177727 -0.000205083 0.0
0.146527 -0.000151506 0.0
0.119133 -0.000106094 0.0
0.0970517 -7.1084e-05 0.0
0 0 0.0
0.0349382 -1.21947e-05 0.0
0.0672778 -4.1883e-05 0.0
0.152299 -0.00017211 0.0
0.178016 -0.000210098 0.0
0.210115 -0.000265556 0.0
0.244858 -0.000314482 0.0
0.24942 -0.000323104 0.0
0.232224 -0.000333691 0.0
0.244196 -0.00035766 0.0
0.249988 -0.000381386 0.0
0.249132 -0.000339412 0.0
0.235914 -0.000324644 0.0
0.212961 -0.0003237 0.0
0 0 0.0
0.0371616 -1.7001e-05 0.0
0.141108 -0.000175446 0.0
0.0999553 -0.000106317 0.0
0.0665985 -5.29428e-05 0.0
0.21363 -0.000289622 0.0
0.186609 -0.000252165 0.0
0.165086 -0.000205422 0.0
0.122242 -0.000127005 0.0
0.0928669 -7.78797e-05 0.0
0 0 0.0
0.0349085 -1.3608e-05 0.0
0.064227 -4.44607e-05 0.0
0.165595 -0.000219687 0.0
0.186966 -0.000258099 0.0
0.158121 -0.00022966 0.0
0.247091 -0.000366958 0.0
0.248691 -0.000421171 0.0
0.23105 -0.000374315 0.0
0.240524 -0.000399306 0.0
0.248757 -0.000421025 0.0
0.240204 -0.000372986 0.0
0.229258 -0.000366181 0.0
0.199179 -0.000316792 0.0
0.218632 -0.000378278 0.0
0 0 0.0
0.0346492 -1.66835e-05 0.0
0.126166 -0.000170417 0.0
0.0681765 -5.97852e-05 0.0
0.0988165 -0.000115704 0.0
0.208085 -0.000330502 0.0
0.189762 -0.000288377 0.0
0.168129 -0.000239608 0.0
0.140622 -0.000174023 0.0
0.0954105 -9.25139e-05 0.0
0 0 0.0
0.0332525 -1.39206e-05 0.0
0.0660568 -5.28939e-05 0.0
0.18322 -0.00029923 0.0
0.159259 -0.00025681 0.0
0.244899 -0.000433851 0.0
0.24966 -0.000476014 0.0
0.235959 -0.000437412 0.0
0.244857 -0.000462098 0.0
0.249377 -0.000475172 0.0
0.238622 -0.000438922 0.0
0.218423 -0.000396635 0.0
0.203101 -0.000369159 0.0
0.223368 -0.000432113 0.0
0 0 0.0
0.0478052 -3.32238e-05 0.0
0.127916 -0.000194124 0.0
0.0904202 -0.000108701 0.0
0.202611 -0.000354744 0.0
0.17797 -0.000292103 0.0
0.147891 -0.000219733 0.0
0.118723 -0.000144568 0.0
0.0780291 -7.77813e-05 0.0
0 0 0.0
0.0342308 -1.63918e-05 0.0
0.187828 -0.000353926 0.0
0.160396 -0.000285571 0.0
0.246452 -0.000494994 0.0
0.249999 -0.000533334 0.0
0.240137 -0.000504384 0.0
0.247575 -0.00055536 0.0
0.239861 -0.000502666 0.0
0.227295 -0.000465325 0.0
0.209733 -0.000414153 0.0
0.22772 -0.000490051 0.0
0.210286 -0.00043306 0.0
0 0 0.0
0.0478681 -3.70685e-05 0.0
0.128009 -0.000216534 0.0
0.0905012 -0.000119455 0.0
0.187175 -0.000350937 0.0
0.159623 -0.000275636 0.0
0.0471983 -3.26495e-05 0.0
0.127089 -0.00019133 0.0
0.0895926 -0.000106568 0.0
0 0 0.0
0.187902 -0.000397541 0.0
0.160485 -0.000319475 0.0
0.24742 -0.000560703 0.0
0.249998 -0.000600197 0.0
0.240169 -0.000568311 0.0
0.247591 -0.000623945 0.0
0.227249 -0.000522938 0.0
0.239829 -0.000565062 0.0
0.187101 -0.00039359 0.0
0.209672 -0.000465117 0.0
0.22776 -0.000537771 0.0
0.21035 -0.000486732 0.0
0 0 0.0
0.0479373 -4.05291e-05 0.0
0.128114 -0.000240555 0.0
0.0906107 -0.000133738 0.0
0.126996 -0.000214359 0.0
0.159539 -0.000308944 0.0
0.0471393 -3.6247e-05 0.0
0.0895042 -0.000118484 0.0
0 0 0.0
0.187987 -0.000444005 0.0
0.160585 -0.000356085 0.0
0.247403 -0.000628432 0.0
0.249997 -0.000671811 0.0
0.227803 -0.000589984 0.0
0.240218 -0.00066463 0.0
0.247608 -0.00069822 0.0
0.227205 -0.00057159 0.0
0.239793 -0.000631948 0.0
0.187039 -0.000426352 0.0
0.209602 -0.000519458 0.0
0.210422 -0.000544397 0.0
0 0 0.0
0.0480184 -4.48468e-05 0.0
0.128249 -0.000270157 0.0
0.0907224 -0.000147234 0.0
0.126909 -0.000234203 0.0
0.159443 -0.000343834 0.0
0.0470676 -4.03949e-05 0.0
0.0894064 -0.00013105 0.0
0 0 0.0
0.160697 -0.000395051 0.0
0.188108 -0.000506668 0.0
0.247382 -0.000701031 0.0
0.249995 -0.000748848 0.0
0.240251 -0.000726371 0.0
0.227885 -0.000683333 0.0
0.247628 -0.000777296 0.0
0.239751 -0.000703017 0.0
0.227157 -0.000624679 0.0
0.186949 -0.000473632 0.0
0.209525 -0.000576994 0.0
0.210503 -0.000607438 0.0
0 0 0.0
0.0480997 -4.91531e-05 0.0
0.128362 -0.000294123 0.0
0.0908454 -0.000161583 0.0
0.126797 -0.000259613 0.0
0.159336 -0.000381732 0.0
0 0 0.0
0.089297 -0.00014562 0.0
0.0469948 -4.46487e-05 0.0
0.188218 -0.000564821 0.0
0.160822 -0.000438124 0.0
0.227942 -0.000746605 0.0
0.247359 -0.000779772 0.0
0.249992 -0.000832588 0.0
0.247644 -0.000844481 0.0
0.240286 -0.000791409 0.0
0.239705 -0.000779819 0.0
0.227093 -0.000693157 0.0
0.186821 -0.00053723 0.0
0.209439 -0.000639683 0.0
0.210593 -0.00067558 0.0
0 0 0.0
0.0481909 -5.34832e-05 0.0
0.0909673 -0.00017484 0.0
0.128507 -0.000323679 0.0
0.126653 -0.000291948 0.0
0.159218 -0.000422751 0.0
0 0 0.0
0.0469071 -4.96709e-05 0.0
0.0891897 -0.000159546 0.0
0.188311 -0.000610695 0.0
0.160964 -0.000485463 0.0
0.228001 -0.000815394 0.0
0.240353 -0.000917853 0.0
0.247332 -0.000865122 0.0
0.249988 -0.00092306 0.0
0.247662 -0.000915656 0.0
0.239652 -0.000862509 0.0
0.227021 -0.00076694 0.0
0.186736 -0.00057921 0.0
0.209344 -0.000705811 0.0
0.210695 -0.00075176 0.0
0 0 0.0
0.0482914 -5.77989e-05 0.0
0.128696 -0.000362236 0.0
0.0911317 -0.000193266 0.0
0.126534 -0.0003188 0.0
0.159088 -0.000467285 0.0
0.0468184 -5.48049e-05 0.0
0 0 0.0
0.0890447 -0.000179199 0.0
0.161122 -0.000537998 0.0
0.188481 -0.00069562 0.0
0.228115 -0.000940998 0.0
0.240408 -0.00102207 0.0
0.247683 -0.00101703 0.0
0.247285 -0.000998932 0.0
0.249982 -0.00102382 0.0
0.239593 -0.000953659 0.0
0.226911 -0.000873077 0.0
0.186582 -0.000652971 0.0
0.209238 -0.000777879 0.0
0.210808 -0.000836462 0.0
0 0 0.0
0.048399 -6.20654e-05 0.0
0.0912971 -0.000209739 0.0
0.1613 -0.000595178 0.0
0.128853 -0.000392643 0.0
0.126384 -0.000353304 0.0
0.158975 -0.000505625 0.0
0.0467134 -6.19112e-05 0.0
0 0 0.0
0.0889113 -0.00019799 0.0
0.210914 -0.00091709 0.0
0.188598 -0.000755589 0.0
0.240454 -0.00111194 0.0
0.228206 -0.00105166 0.0
0.247718 -0.00117939 0.0
0.249973 -0.0011324 0.0
0.247254 -0.00107847 0.0
0.239526 -0.0010496 0.0
0.226835 -0.000943636 0.0
0.186479 -0.000700697 0.0
0.158791 -0.000568002 0.0
0.209122 -0.000852975 0.0
0 0 0.0
0.0914633 -0.000227941 0.0
0.0485247 -6.75128e-05 0.0
0.16146 -0.00065011 0.0
0.129089 -0.00044268 0.0
0.126219 -0.000391602 0.0
0 0 0.0
0.046596 -6.98002e-05 0.0
0.0887331 -0.000223628 0.0
0.211032 -0.00100575 0.0
0.188813 -0.00086982 0.0
0.240502 -0.00121006 0.0
0.228309 -0.00117532 0.0
0.247732 -0.00128156 0.0
0.249958 -0.00125298 0.0
0.247221 -0.0011656 0.0
0.158657 -0.000609473 0.0
0.209014 -0.000919773 0.0
0.239447 -0.00115157 0.0
0.226751 -0.00101873 0.0
0.186333 -0.000767559 0.0
0 0 0.0
0.0486473 -7.26915e-05 0.0
0.0916647 -0.000251082 0.0
0.161684 -0.000726982 0.0
0.129326 -0.000494235 0.0
0.0885526 -0.000248588 0.0
0.126011 -0.000438674 0.0
0 0 0.0
0.0464583 -7.91649e-05 0.0
0.211183 -0.00112705 0.0
0.189013 -0.000978135 0.0
0.240565 -0.00134847 0.0
0.228419 -0.00131686 0.0
0.247748 -0.00139214 0.0
0.24994 -0.00138649 0.0
0.247142 -0.0013367 0.0
0.158481 -0.000664656 0.0
0.239359 -0.0012625 0.0
0.208898 -0.000986701 0.0
0.226598 -0.00114815 0.0
0.186133 -0.000855435 0.0
0 0 0.0
0.0919176 -0.000284212 0.0
0.0487878 -8.06755e-05 0.0
0.161988 -0.00084047 0.0
0.129593 -0.000558051 0.0
0.0883767 -0.000272259 0.0
0.125815 -0.000482405 0.0
0 0 0.0
0.0463095 -8.93911e-05 0.0
0.189235 -0.00110758 0.0
0.21135 -0.00126973 0.0
0.24063 -0.00150869 0.0
0.247765 -0.00154486 0.0
0.228536 -0.00147911 0.0
0.249909 -0.00153037 0.0
0.247072 -0.00147247 0.0
0.239256 -0.00137822 0.0
0.249447 -0.00166505 0.0
0.15829 -0.000718746 0.0
0.226463 -0.00124873 0.0
0.208698 -0.00109443 0.0
0.186002 -0.000906092 0.0
0 0 0.0
0.0921566 -0.000320554 0.0
0.0489584 -9.13396e-05 0.0
0.162222 -0.000935578 0.0
0.129897 -0.000638541 0.0
0.0881659 -0.000298079 0.0
0.125637 -0.000517809 0.0
0 0 0.0
0.0461548 -9.89996e-05 0.0
0.189484 -0.00126128 0.0
0.211534 -0.00143774 0.0
0.240688 -0.00168616 0.0
0.228662 -0.00167051 0.0
0.247769 -0.00180667 0.0
0.249064 -0.00162135 0.0
0.243704 -0.00153286 0.0
0.233372 -0.0014064 0.0
0.249838 -0.00178055 0.0
0.158087 -0.00076799 0.0
0.218068 -0.00125112 0.0
0.203317 -0.00112253 0.0
0.185767 -0.000985061 0.0
0 0 0.0
0.0924577 -0.000373429 0.0
0.049142 -0.000104473 0.0
0.162544 -0.00107916 0.0
0.130247 -0.000742396 0.0
0.125383 -0.000559496 0.0
0.0879398 -0.000321456 0.0
0 0 0.0
0.0459691 -0.000107714 0.0
0.189761 -0.00144791 0.0
0.211735 -0.00163641 0.0
0.247754 -0.00201114 0.0
0.22879 -0.00189048 0.0
0.240751 -0.00189464 0.0
0.246928 -0.00170247 0.0
0.239047 -0.00157823 0.0
0.2262 -0.00141824 0.0
0.249762 -0.00196803 0.0
0.157869 -0.000809495 0.0
0.208389 -0.00122987 0.0
0.185556 -0.00104141 0.0
0 0 0.0
0.0493505 -0.000122238 0.0
0.0928094 -0.000443548 0.0
0.130587 -0.000852908 0.0
0.190066 -0.00167064 0.0
0.16291 -0.0012567 0.0
0.125148 -0.000585817 0.0
0.0877014 -0.000339682 0.0
0.0457765 -0.000115901 0.0
0 0 0.0
0.228898 -0.00210119 0.0
0.21195 -0.00187451 0.0
0.247732 -0.00219183 0.0
0.240797 -0.0021355 0.0
0.226005 -0.00151871 0.0
0.246802 -0.00186348 0.0
0.238879 -0.00171031 0.0
0.249664 -0.0021753 0.0
0.185328 -0.00108282 0.0
0.157591 -0.000837146 0.0
0.208106 -0.00132182 0.0
0 0 0.0
0.0496112 -0.00015021 0.0
0.0932766 -0.000541252 0.0
0.131045 -0.0010144 0.0
0.190314 -0.00187371 0.0
0.163409 -0.00153138 0.0
0.124907 -0.000597365 0.0
0.0874358 -0.000348361 0.0
0.0455793 -0.00012009 0.0
0 0 0.0
0.124662 -0.0005907 0.0
0.229004 -0.00233028 0.0
0.21225 -0.00225415 0.0
0.240844 -0.00253395 0.0
0.247695 -0.00238615 0.0
0.225689 -0.0016498 0.0
0.238681 -0.00184517 0.0
0.246644 -0.00203926 0.0
0.249524 -0.00240636 0.0
0.185074 -0.00110838 0.0
0.157337 -0.000843219 0.0
0.207849 -0.00138259 0.0
0 0 0.0
0.0499271 -0.000181731 0.0
0.0937887 -0.000657104 0.0
0.131576 -0.00121551 0.0
0.190676 -0.00218035 0.0
0.163888 -0.00181303 0.0
0.0453739 -0.000123536 0.0
0.08719 -0.000347976 0.0
0 0 0.0
0.124453 -0.000565854 0.0
0.229127 -0.00266461 0.0
0.212494 -0.00260334 0.0
0.240848 -0.00286469 0.0
0.247613 -0.00267331 0.0
0.225449 -0.00173032 0.0
0.238441 -0.00198555 0.0
0.249345 -0.0026625 0.0
0.246345 -0.00231858 0.0
0.18486 -0.00111228 0.0
0.157068 -0.000823672 0.0
0.207556 -0.00142622 0.0
0 0 0.0
0.0503124 -0.000223952 0.0
0.094404 -0.000797348 0.0
0.132295 -0.00149773 0.0
0.191166 -0.00264763 0.0
0.212744 -0.00301347 0.0
0.164424 -0.00215129 0.0
0.0451878 -0.000120184 0.0
0.0869582 -0.000333767 0.0
0 0 0.0
0.124214 -0.000518523 0.0
0.229274 -0.00318633 0.0
0.240832 -0.00316851 0.0
0.247495 -0.00299552 0.0
0.249171 -0.00287721 0.0
0.225182 -0.00180008 0.0
0.238138 -0.00213791 0.0
0.246065 -0.00253005 0.0
0.156784 -0.000777465 0.0
0.184547 -0.00110102 0.0
0.207209 -0.00145675 0.0
0 0 0.0
0.0508123 -0.000276663 0.0
0.0951458 -0.00097039 0.0
0.133037 -0.00179776 0.0
0.191486 -0.00298174 0.0
0.212993 -0.00347654 0.0
0.165032 -0.00254702 0.0
0.0450024 -0.000114636 0.0
0.0867491 -0.000304635 0.0
0 0 0.0
0.156543 -0.000716925 0.0
0.0865772 -0.000258144 0.0
0.123953 -0.000436798 0.0
0.229357 -0.00366361 0.0
0.240786 -0.0034918 0.0
0.247233 -0.00353407 0.0
0.248968 -0.00310264 0.0
0.245811 -0.00271233 0.0
0.224798 -0.0018827 0.0
0.237621 -0.00235687 0.0
0.184097 -0.00105148 0.0
0.20687 -0.00147587 0.0
0.229416 -0.00408518 0.0
0 0 0.0
0.0513902 -0.000336191 0.0
0.133909 -0.00214784 0.0
0.0960268 -0.00117331 0.0
0.21325 -0.00402112 0.0
0.192063 -0.00361674 0.0
0.165715 -0.00300398 0.0
0.0448353 -9.89903e-05 0.0
0 0 0.0
0.183782 -0.00100949 0.0
0.156227 -0.000625434 0.0
0.123751 -0.000349374 0.0
0.0446847 -8.876e-05 0.0
0.0864418 -0.000203293 0.0
0.2407 -0.0039556 0.0
0.247034 -0.00386598 0.0
0.248627 -0.00343853 0.0
0.248322 -0.00372112 0.0
0.245502 -0.00290098 0.0
0.224332 -0.00196872 0.0
0.237136 -0.00252755 0.0
0.206478 -0.0014744 0.0
0.229435 -0.00455469 0.0
0.0520511 -0.000402653 0.0
0 0 0.0
0.134753 -0.00247983 0.0
0.0970674 -0.00139905 0.0
0.213499 -0.00463128 0.0
0.192432 -0.00405476 0.0
0.166492 -0.00352707 0.0
0 0 0.0
0.183333 -0.000929232 0.0
0.155828 -0.000490197 0.0
0.123601 -0.000253387 0.0
0.0445886 -7.24928e-05 0.0
0.0863502 -0.000141953 0.0
0.240479 -0.00471076 0.0
0.246803 -0.00421807 0.0
0.247958 -0.0040167 0.0
0.244803 -0.00328932 0.0
0.223789 -0.00204673 0.0
0.236582 -0.0027064 0.0
0.205783 -0.00146874 0.0
0.229448 -0.00519721 0.0
0 0 0.0
0.0528812 -0.000482005 0.0
0.135891 -0.00291731 0.0
0.0981727 -0.00163125 0.0
0.167362 -0.0041075 0.0
0.213745 -0.00532354 0.0
0.193113 -0.00486504 0.0
0 0 0.0
0 0 0.0
0.182811 -0.000844423 0.0
0.155482 -0.000367011 0.0
0.123455 -0.000141614 0.0
0.0863179 -7.81662e-05 0.0
0.0445208 -5.44182e-05 0.0
0.240242 -0.00532496 0.0
0.246416 -0.00473315 0.0
0.23605 -0.00286614 0.0
0.247398 -0.0044553 0.0
0.244175 -0.0036048 0.0
0.223139 -0.00213437 0.0
0.205134 -0.00145708 0.0
0.240002 -0.00587612 0.0
0.229397 -0.00591523 0.0
0.053869 -0.000571722 0.0
0.0995882 -0.00191196 0.0
0.137203 -0.00340879 0.0
0.168149 -0.00463259 0.0
0.213993 -0.00608736 0.0
0.193545 -0.00542578 0.0
0 0 0.0
0 0 0.0
0.155193 -0.000261873 0.0
0.182093 -0.000725098 0.0
0.0863347 -1.70321e-05 0.0
0.123321 -1.39825e-05 0.0
0.0444725 -3.77229e-05 0.0
0.245713 -0.00555728 0.0
0.24671 -0.00494871 0.0
0.204406 -0.00144641 0.0
0.235448 -0.00303006 0.0
0.243626 -0.00387373 0.0
0.222101 -0.00226217 0.0
0.239714 -0.00644743 0.0
0.229284 -0.00700887 0.0
0.214227 -0.00694115 0.0
0.0550838 -0.000680726 0.0
0.101223 -0.00223479 0.0
0.13895 -0.0040342 0.0
0.16924 -0.00533293 0.0
0.19435 -0.00644133 0.0
0 0 0.0
0 0 0.0
0.154758 -0.000118054 0.0
0.181436 -0.000647563 0.0
0.0864235 4.80122e-05 0.0
0.123251 8.46688e-05 0.0
0.0444803 -1.95819e-05 0.0
0.242994 -0.00416587 0.0
0.245909 -0.00548192 0.0
0.245072 -0.00623073 0.0
0.203573 -0.00144627 0.0
0.234585 -0.00326667 0.0
0.221175 -0.00239098 0.0
0.180733 -0.000586562 0.0
0.239066 -0.00759104 0.0
0 0 0.0
0.229104 -0.00793905 0.0
0.195056 -0.00736293 0.0
0.214452 -0.007874 0.0
0.0563752 -0.000789709 0.0
0.140448 -0.00456042 0.0
0.103313 -0.00263983 0.0
0.170721 -0.00629791 0.0
0 0 0.0
0 0 0.0
0 0 0.0
0 0 0.0
0 0 0.0
0.0445159 -6.70126e-06 0.0
0.123224 0.0001628 0.0
0.154385 -2.62201e-05 0.0
0.0865126 8.54361e-05 0.0
0.242059 -0.00456426 0.0
0.244962 -0.00608221 0.0
0.244338 -0.0069649 0.0
0.220321 -0.0024943 0.0
0.20263 -0.00146751 0.0
0.233142 -0.00364566 0.0
0.201753 -0.0015037 0.0
0.180155 -0.000556675 0.0
0.238464 -0.008524 0.0
0.228878 -0.00893866 0.0
0 0 0.0
9.27683e-05 -3.35141e-05 0.0
0 0 0.0
-0.000430026 0.00278237 0.0
0.21468 -0.00891732 0.0
0.19564 -0.00810466 0.0
0.0580256 -0.000934042 0.0
0.142395 -0.00523138 0.0
0.105501 -0.00305934 0.0
0.172142 -0.00720236 0.0
0 0 0.0
0 0 0.0
0 0 0.0
-0.000332666 0.00161033 0.0
-5.51117e-05 -5.0374e-05 0.0
-3.28801e-05 1.19955e-05 0.0
0 0 0.0
0.0445509 -2.37837e-06 0.0
0.12321 0.000209232 0.0
0.154005 3.13684e-05 0.0
0.0866663 0.000110622 0.0
0.240982 -0.00502103 0.0
0.24387 -0.00674145 0.0
0.243462 -0.00776817 0.0
0.219376 -0.00263184 0.0
0.232181 -0.00391027 0.0
0.200799 -0.00155836 0.0
0.179146 -0.000561327 0.0
0.237772 -0.00953242 0.0
0.231338 -0.00987847 0.0
0.222312 -0.00995176 0.0
0 0 0.0
7.12287e-05 3.40947e-05 0.0
0 0 0.0
0 0 0.0
-0.0014962 0.00603138 0.0
-0.00150088 0.00411548 0.0
0.210684 -0.00976807 0.0
0.196462 -0.00919575 0.0
0.107745 -0.00349434 0.0
0.0597667 -0.00109975 0.0
0.144587 -0.00600134 0.0
0.173702 -0.00821132 0.0
0 0 0.0
-0.000601629 0.000915594 0.0
-0.00106507 0.00226057 0.0
-0.000432015 0.000422375 0.0
-0.000452567 0.000376346 0.0
0 0 0.0
0.044598 -3.09205e-06 0.0
0.123219 0.000225695 0.0
0.153623 5.50544e-05 0.0
0.0868195 0.000108782 0.0
0.239744 -0.00552392 0.0
0.242621 -0.00745962 0.0
0.242443 -0.00864613 0.0
0.217629 -0.00290769 0.0
0.231125 -0.00418467 0.0
0.199577 -0.00167763 0.0
0.153259 1.08224e-05 0.0
0.17828 -0.000626945 0.0
0.237121 -0.0103987 0.0
0.228338 -0.0108366 0.0
0.215019 -0.0109626 0.0
0 0 0.0
-0.000346797 0.000194871 0.0
0 0 0.0
0 0 0.0
0 0 0.0
0 0 0.0
-0.00277527 0.00435711 0.0
-0.00039397 0.00504528 0.0
-0.00148619 0.00764473 0.0
-0.00350642 0.00994723 0.0
-0.00305799 0.0069917 0.0
0 0 0.0
-2.76563e-05 0.00694443 0.0
0.197559 -0.0107663 0.0
0.175077 -0.0091418 0.0
0 0 0.0
0.0620231 -0.00133159 0.0
0.110564 -0.0040736 0.0
0.147455 -0.0070938 0.0
0 0 0.0
0 0 0.0
-0.00176742 0.00223096 0.0
-0.00144831 0.00130511 0.0