# vtk DataFile Version 3.0
Mesh NS-CD Problem
ASCII
DATASET UNSTRUCTURED_GRID
POINTS 10839 float
-2 0.3 0.0
-2 0.4 0.0
-2 0.35 0.0
-2 0.45 0.0
-2 0.5 0.0
-2 0.55 0.0
-2 0 0.0
-2 0.05 0.0
-2 0.85 0.0
-2 0.9 0.0
-2 0.1 0.0
-2 0.15 0.0
-2 0.25 0.0
-2 0.2 0.0
-1.96653 0.266667 0.0
-1.96524 0.415385 0.0
-1.96485 0.315 0.0
-1.96348 0.363636 0.0
-1.96414 0.464286 0.0
-2 0.6 0.0
-1.96538 0.584615 0.0
-1.96538 0.538462 0.0
-1.94979 0 0.0
-1.96653 0.0666666 0.0
-1.93306 0.0333333 0.0
-2 0.8 0.0
-2 0.75 0.0
-2 0.7 0.0
-2 0.65 0.0
-1.96249 0.7375 0.0
-1.96666 0.833333 0.0
-2 1 0.0
-2 0.95 0.0
-1.96249 0.8875 0.0
-1.96666 0.933333 0.0
-1.96234 0.1125 0.0
-1.96653 0.166667 0.0
-1.93724 0.225 0.0
-1.92971 0.28 0.0
-1.93048 0.380769 0.0
-1.93048 0.423077 0.0
-1.89958 0.3375 0.0
-1.9292 0.484203 0.0
-1.92117 0.530907 0.0
-1.96363 0.636364 0.0
-1.93076 0.576923 0.0
-1.89958 0 0.0
-1.88703 0.0375 0.0
-1.90963 0.08 0.0
-1.86611 0.0666666 0.0
-1.93749 0.775 0.0
-1.93635 0.672727 0.0
-1.92999 0.72 0.0
-1.93332 0.866667 0.0
-1.92856 0.821429 0.0
-1.94999 1 0.0
-1.92499 0.9625 0.0
-1.92499 0.925 0.0
-1.89998 0.9 0.0
-1.89958 0.125 0.0
-1.92827 0.178571 0.0
-1.89958 0.233333 0.0
-1.89045 0.290909 0.0
-1.86096 0.311538 0.0
-1.89241 0.392857 0.0
-1.89334 0.448489 0.0
-1.85655 0.357143 0.0
-1.89614 0.653846 0.0
-1.89427 0.504121 0.0
-1.8952 0.559753 0.0
-1.89614 0.615385 0.0
-1.84937 0 0.0
-1.83264 0.0333333 0.0
-1.85655 0.107143 0.0
-1.81172 0.075 0.0
-1.89998 0.766667 0.0
-1.89089 0.709091 0.0
-1.87498 0.85 0.0
-1.85998 0.79 0.0
-1.88748 0.8125 0.0
-1.89998 1 0.0
-1.88748 0.9625 0.0
-1.86664 0.933333 0.0
-1.85712 0.892857 0.0
-1.87448 0.15 0.0
-1.86611 0.194444 0.0
-1.83264 0.133333 0.0
-1.83264 0.2625 0.0
-1.82068 0.321429 0.0
-1.85664 0.404762 0.0
-1.85674 0.452381 0.0
-1.85683 0.5 0.0
-1.81184 0.375 0.0
-1.85712 0.642857 0.0
-1.85693 0.547619 0.0
-1.85702 0.595238 0.0
-1.79917 0 0.0
-1.78482 0.0357143 0.0
-1.79917 0.116667 0.0
-1.76569 0.0666666 0.0
-1.85452 0.745455 0.0
-1.82689 0.692308 0.0
-1.81815 0.781818 0.0
-1.82497 0.825 0.0
-1.84997 1 0.0
-1.8333 0.958333 0.0
-1.81247 0.8875 0.0
-1.81247 0.925 0.0
-1.81742 0.218182 0.0
-1.82427 0.175 0.0
-1.77634 0.145455 0.0
-1.79144 0.242308 0.0
-1.78482 0.285714 0.0
-1.77469 0.332653 0.0
-1.81215 0.529762 0.0
-1.81194 0.422619 0.0
-1.81203 0.470238 0.0
-1.76714 0.392857 0.0
-1.81234 0.625 0.0
-1.79732 0.571429 0.0
-1.74896 0 0.0
-1.73222 0.0333333 0.0
-1.75398 0.105 0.0
-1.71883 0.07 0.0
-1.79227 0.730769 0.0
-1.78007 0.679121 0.0
-1.75765 0.769231 0.0
-1.78178 0.818182 0.0
-1.78996 0.86 0.0
-1.79996 1 0.0
-1.78568 0.964286 0.0
-1.76663 0.922222 0.0
-1.76569 0.1875 0.0
-1.73222 0.15 0.0
-1.74896 0.25 0.0
-1.73714 0.304762 0.0
-1.76743 0.537202 0.0
-1.72869 0.343878 0.0
-1.76732 0.485119 0.0
-1.76723 0.440476 0.0
-1.72243 0.410714 0.0
-1.76757 0.607143 0.0
-1.69875 0 0.0
-1.68369 0.035 0.0
-1.69875 0.1125 0.0
-1.66528 0.075 0.0
-1.74341 0.708974 0.0
-1.73324 0.665934 0.0
-1.70441 0.74478 0.0
-1.71423 0.785714 0.0
-1.72303 0.826923 0.0
-1.74541 0.854545 0.0
-1.74541 0.890909 0.0
-1.74996 1 0.0
-1.73745 0.9625 0.0
-1.71359 0.927273 0.0
-1.68716 0.153846 0.0
-1.7131 0.214286 0.0
-1.70725 0.275 0.0
-1.69712 0.321939 0.0
-1.72279 0.589286 0.0
-1.72261 0.5 0.0
-1.7227 0.544643 0.0
-1.6827 0.355102 0.0
-1.67773 0.428571 0.0
-1.70763 0.464286 0.0
-1.70369 0.62449 0.0
-1.64854 0 0.0
-1.63181 0.0375 0.0
-1.64137 0.142857 0.0
-1.61764 0.0769231 0.0
-1.69458 0.703846 0.0
-1.67471 0.657437 0.0
-1.66143 0.727637 0.0
-1.67125 0.768571 0.0
-1.67851 0.821429 0.0
-1.68841 0.861538 0.0
-1.70904 0.890909 0.0
-1.69995 1 0.0
-1.68176 0.963636 0.0
-1.67267 0.927273 0.0
-1.65427 0.187143 0.0
-1.66718 0.231429 0.0
-1.66554 0.3 0.0
-1.67802 0.571429 0.0
-1.67792 0.523809 0.0
-1.6367 0.366327 0.0
-1.63682 0.423469 0.0
-1.62568 0.502976 0.0
-1.6629 0.470238 0.0
-1.65254 0.618367 0.0
-1.6059 0.307143 0.0
-1.59833 0 0.0
-1.58288 0.0384615 0.0
-1.60563 0.169643 0.0
-1.58179 0.112271 0.0
-1.56964 0.0714286 0.0
-1.64574 0.690385 0.0
-1.62827 0.751429 0.0
-1.63371 0.791071 0.0
-1.64279 0.857143 0.0
-1.65378 0.896154 0.0
-1.64994 1 0.0
-1.6363 0.963636 0.0
-1.61916 0.930769 0.0
-1.61345 0.209107 0.0
-1.62126 0.248571 0.0
-1.56989 0.196429 0.0
-1.63324 0.553571 0.0
-1.58846 0.535714 0.0
-1.59408 0.361905 0.0
-1.59161 0.402211 0.0
-1.58832 0.464286 0.0
-1.61504 0.598581 0.0
-1.59683 0.64359 0.0
-1.57899 0.274107 0.0
-1.56176 0.322381 0.0
-1.54812 0 0.0
-1.53378 0.0357143 0.0
-1.54593 0.147619 0.0
-1.53385 0.0732143 0.0
-1.53393 0.110714 0.0
-1.58522 0.704286 0.0
-1.58709 0.745 0.0
-1.58896 0.785714 0.0
-1.60695 0.830357 0.0
-1.60707 0.892857 0.0
-1.59993 1 0.0
-1.58454 0.965385 0.0
-1.57135 0.928571 0.0
-1.55209 0.241071 0.0
-1.5291 0.198214 0.0
-1.56936 0.570918 0.0
-1.54369 0.517857 0.0
-1.5464 0.380952 0.0
-1.54564 0.427721 0.0
-1.54488 0.47449 0.0
-1.55026 0.606122 0.0
-1.54222 0.677143 0.0
-1.52943 0.282857 0.0
-1.52143 0.33619 0.0
-1.49792 0 0.0
-1.49802 0.05 0.0
-1.49822 0.15 0.0
-1.49312 0.1 0.0
-1.5423 0.717143 0.0
-1.54419 0.767857 0.0
-1.54727 0.819048 0.0
-1.57122 0.861905 0.0
-1.53553 0.914286 0.0
-1.54992 1 0.0
-1.53563 0.964286 0.0
-1.49842 0.25 0.0
-1.48831 0.2 0.0
-1.5214 0.558929 0.0
-1.49891 0.5 0.0
-1.49871 0.4 0.0
-1.47631 0.45 0.0
-1.49911 0.6 0.0
-1.49921 0.65 0.0
-1.49931 0.7 0.0
-1.48111 0.35 0.0
-1.48351 0.3 0.0
-1.44771 0 0.0
-1.44782 0.05 0.0
-1.44804 0.15 0.0
-1.44793 0.1 0.0
-1.49941 0.75 0.0
-1.49951 0.8 0.0
-1.49981 0.95 0.0
-1.49961 0.85 0.0
-1.49971 0.9 0.0
-1.49991 1 0.0
-1.44826 0.25 0.0
-1.43815 0.2 0.0
-1.47151 0.55 0.0
-1.44881 0.5 0.0
-1.44859 0.4 0.0
-1.42619 0.45 0.0
-1.44913 0.65 0.0
-1.44902 0.6 0.0
-1.44935 0.75 0.0
-1.44924 0.7 0.0
-1.43972 0.35 0.0
-1.43336 0.3 0.0
-1.3975 0 0.0
-1.39762 0.05 0.0
-1.39786 0.15 0.0
-1.39274 0.1 0.0
-1.44957 0.85 0.0
-1.44946 0.8 0.0
-1.4523 0.95 0.0
-1.44968 0.9 0.0
-1.4499 1 0.0
-1.3981 0.25 0.0
-1.38798 0.2 0.0
-1.42141 0.55 0.0
-1.3987 0.5 0.0
-1.39834 0.35 0.0
-1.37845 0.4 0.0
-1.37607 0.45 0.0
-1.40784 0.65 0.0
-1.39894 0.6 0.0
-1.41185 0.75 0.0
-1.39918 0.7 0.0
-1.38322 0.3 0.0
-1.34729 0 0.0
-1.34492 0.05 0.0
-1.34018 0.15 0.0
-1.34255 0.1 0.0
-1.40707 0.85 0.0
-1.39941 0.8 0.0
-1.39977 0.95 0.0
-1.39965 0.9 0.0
-1.39989 1 0.0
-1.33781 0.2 0.0
-1.33544 0.25 0.0
-1.37131 0.55 0.0
-1.34859 0.5 0.0
-1.33833 0.4 0.0
-1.3307 0.35 0.0
-1.32595 0.45 0.0
-1.34885 0.6 0.0
-1.36655 0.65 0.0
-1.36179 0.75 0.0
-1.34911 0.7 0.0
-1.33307 0.3 0.0
-1.29708 0 0.0
-1.29722 0.05 0.0
-1.2975 0.15 0.0
-1.29236 0.1 0.0
-1.35703 0.85 0.0
-1.34937 0.8 0.0
-1.34988 1 0.0
-1.34962 0.9 0.0
-1.35226 0.95 0.0
-1.28528 0.25 0.0
-1.28764 0.2 0.0
-1.28931 0.35 0.0
-1.32121 0.55 0.0
-1.29848 0.5 0.0
-1.28709 0.45 0.0
-1.2982 0.4 0.0
-1.29876 0.6 0.0
-1.31647 0.65 0.0
-1.29918 0.75 0.0
-1.29904 0.7 0.0
-1.28292 0.3 0.0
-1.24687 0 0.0
-1.24702 0.05 0.0
-1.24717 0.1 0.0
-1.24732 0.15 0.0
-1.29946 0.85 0.0
-1.29932 0.8 0.0
-1.29987 1 0.0
-1.29974 0.95 0.0
-1.30462 0.9 0.0
-1.24762 0.25 0.0
-1.23747 0.2 0.0
-1.24792 0.35 0.0
-1.22807 0.4 0.0
-1.27111 0.55 0.0
-1.24837 0.5 0.0
-1.24822 0.45 0.0
-1.24867 0.6 0.0
-1.26639 0.65 0.0
-1.26167 0.75 0.0
-1.24897 0.7 0.0
-1.23277 0.3 0.0
-1.19667 0 0.0
-1.19683 0.05 0.0
-1.18964 0.15 0.0
-1.19198 0.1 0.0
-1.25695 0.85 0.0
-1.24927 0.8 0.0
-1.25223 0.95 0.0
-1.24987 1 0.0
-1.24957 0.9 0.0
-1.1873 0.2 0.0
-1.18496 0.25 0.0
-1.18028 0.35 0.0
-1.17794 0.4 0.0
-1.1981 0.45 0.0
-1.19842 0.55 0.0
-1.19826 0.5 0.0
-1.19858 0.6 0.0
-1.19874 0.65 0.0
-1.19906 0.75 0.0
-1.1989 0.7 0.0
-1.18262 0.3 0.0
-1.14646 0 0.0
-1.14663 0.05 0.0
-1.1418 0.1 0.0
-1.13713 0.2 0.0
-1.14697 0.15 0.0
-1.20691 0.85 0.0
-1.20926 0.8 0.0
-1.20221 0.95 0.0
-1.19986 1 0.0
-1.20456 0.9 0.0
-1.13997 0.3 0.0
-1.14731 0.25 0.0
-1.13781 0.4 0.0
-1.13014 0.35 0.0
-1.12548 0.45 0.0
-1.14815 0.5 0.0
-1.15962 0.55 0.0
-1.14849 0.6 0.0
-1.15745 0.65 0.0
-1.16155 0.75 0.0
-1.14917 0.8 0.0
-1.14883 0.7 0.0
-1.09625 0 0.0
-1.09661 0.1 0.0
-1.09393 0.05 0.0
-1.09697 0.2 0.0
-1.08929 0.15 0.0
-1.15687 0.85 0.0
-1.14985 1 0.0
-1.15219 0.95 0.0
-1.14951 0.9 0.0
-1.09733 0.3 0.0
-1.08465 0.25 0.0
-1.09769 0.4 0.0
-1.08 0.35 0.0
-1.08661 0.45 0.0
-1.09804 0.5 0.0
-1.12082 0.55 0.0
-1.10916 0.8 0.0
-1.10629 0.7 0.0
-1.0984 0.6 0.0
-1.11616 0.65 0.0
-1.11149 0.75 0.0
-1.04604 0 0.0
-1.04623 0.05 0.0
-1.04642 0.1 0.0
-1.0468 0.2 0.0
-1.03911 0.15 0.0
-1.09948 0.9 0.0
-1.0993 0.85 0.0
-1.09984 1 0.0
-1.09966 0.95 0.0
-1.04718 0.3 0.0
-1.03449 0.25 0.0
-1.04756 0.4 0.0
-1.02986 0.35 0.0
-1.04775 0.45 0.0
-1.04794 0.5 0.0
-1.04813 0.55 0.0
-1.05911 0.8 0.0
-1.04831 0.6 0.0
-1.06376 0.7 0.0
-1.0485 0.65 0.0
-1.04888 0.75 0.0
-0.995833 0 0.0
-0.991231 0.1 0.0
-0.996033 0.05 0.0
-0.986629 0.2 0.0
-0.98893 0.15 0.0
-1.05447 0.9 0.0
-1.04926 0.85 0.0
-1.04983 1 0.0
-1.04964 0.95 0.0
-0.984328 0.25 0.0
-0.99703 0.3 0.0
-0.997429 0.4 0.0
-0.997628 0.45 0.0
-0.979726 0.35 0.0
-0.997827 0.5 0.0
-0.998027 0.55 0.0
-0.998226 0.6 0.0
-0.961416 0.475 0.0
-1.00907 0.8 0.0
-0.998426 0.65 0.0
-0.998625 0.7 0.0
-1.01138 0.75 0.0
-0.945625 0 0.0
-0.946044 0.1 0.0
-0.943334 0.05 0.0
-0.946463 0.2 0.0
-0.938752 0.15 0.0
-1.00444 0.9 0.0
-1.00675 0.85 0.0
-0.999821 1 0.0
-1.00213 0.95 0.0
-0.93417 0.25 0.0
-0.946881 0.3 0.0
-0.9473 0.4 0.0
-0.929588 0.35 0.0
-0.925005 0.45 0.0
-0.960371 0.525 0.0
-0.959325 0.575 0.0
-0.958279 0.625 0.0
-0.922714 0.5 0.0
-0.959017 0.8 0.0
-0.957233 0.675 0.0
-0.952999 0.7125 0.0
-0.948766 0.75 0.0
-0.895417 0 0.0
-0.895855 0.1 0.0
-0.893136 0.05 0.0
-0.896294 0.2 0.0
-0.888573 0.15 0.0
-0.949184 0.85 0.0
-0.954415 0.9 0.0
-0.949812 1 0.0
-0.949603 0.95 0.0
-0.884011 0.25 0.0
-0.896733 0.3 0.0
-0.874887 0.45 0.0
-0.879449 0.35 0.0
-0.897171 0.4 0.0
-0.920423 0.55 0.0
-0.918132 0.6 0.0
-0.915841 0.65 0.0
-0.872606 0.5 0.0
-0.908968 0.8 0.0
-0.91355 0.7 0.0
-0.898707 0.75 0.0
-0.845208 0 0.0
-0.845438 0.05 0.0
-0.845667 0.1 0.0
-0.845896 0.15 0.0
-0.833853 0.25 0.0
-0.846126 0.2 0.0
-0.899146 0.85 0.0
-0.904386 0.9 0.0
-0.899584 0.95 0.0
-0.899804 1 0.0
-0.838062 0.35 0.0
[...]
POINT_DATA 10839
VECTORS Velocity float
0.21 0 0.0
0.24 0 0.0
0.2275 0 0.0
0.2475 0 0.0
0.25 0 0.0
0.2475 0 0.0
0 0 0.0
0.0475 0 0.0
0.1275 0 0.0
0.09 0 0.0
0.09 0 0.0
0.1275 0 0.0
0.1875 0 0.0
0.16 0 0.0
0.195558 -2.87837e-05 0.0
0.242839 -3.15874e-05 0.0
0.215776 -3.41218e-05 0.0
0.231405 -3.60146e-05 0.0
0.248722 -2.65785e-05 0.0
0.24 0 0.0
0.242838 -1.05552e-05 0.0
0.248518 -1.7647e-05 0.0
0 0 0.0
0.0622238 -5.23718e-06 0.0
0.0322287 -4.22933e-06 0.0
0.16 0 0.0
0.1875 0 0.0
0.21 0 0.0
0.2275 0 0.0
0.193594 -2.87887e-06 0.0
0.138889 -4.17346e-06 0.0
0 0 0.0
0.0475 0 0.0
0.0998428 -3.36927e-06 0.0
0.0622215 -6.78641e-07 0.0
0.0998463 -1.12304e-05 0.0
0.138891 -1.60691e-05 0.0
0.174382 -4.52591e-05 0.0
0.201607 -6.57696e-05 0.0
0.235781 -7.04449e-05 0.0
0.244076 -6.39863e-05 0.0
0.223597 -0.000108767 0.0
0.24974 -4.82959e-05 0.0
0.249032 -3.83019e-05 0.0
0.231403 -6.12623e-06 0.0
0.244074 -1.94795e-05 0.0
0 0 0.0
0.0361103 -4.9869e-06 0.0
0.0736111 -1.45637e-05 0.0
0.0622424 -4.92095e-06 0.0
0.174376 -4.21232e-06 0.0
0.220163 -3.17241e-06 0.0
0.2016 -9.23987e-07 0.0
0.115554 -7.42374e-06 0.0
0.146685 -7.50107e-06 0.0
0 0 0.0
0.0360931 8.46463e-10 0.0
0.0693711 -2.77642e-06 0.0
0.0899929 -1.09457e-05 0.0
0.109392 -2.8367e-05 0.0
0.146695 -3.77697e-05 0.0
0.178911 -8.2108e-05 0.0
0.206296 -0.000114315 0.0
0.214499 -0.00016362 0.0
0.238509 -0.000113552 0.0
0.247325 -9.254e-05 0.0
0.229585 -0.00017315 0.0
0.226322 2.01795e-06 0.0
0.249957 -6.19522e-05 0.0
0.246406 -3.3019e-05 0.0
0.236671 -1.07279e-05 0.0
0 0 0.0
0.0322366 5.90492e-06 0.0
0.0956962 -1.41111e-05 0.0
0.0693994 3.61272e-05 0.0
0.178894 -2.14107e-07 0.0
0.20628 8.38665e-06 0.0
0.127503 -1.84567e-05 0.0
0.165917 6.01253e-07 0.0
0.152351 -8.82141e-06 0.0
0 0 0.0
0.0360904 -2.24785e-06 0.0
0.0622068 -1.68926e-05 0.0
0.0956532 -3.27124e-05 0.0
0.127535 -4.39107e-05 0.0
0.156681 -8.48579e-05 0.0
0.115622 -2.39242e-05 0.0
0.193651 -0.000182202 0.0
0.218131 -0.000240202 0.0
0.240901 -0.000157326 0.0
0.247688 -0.000127717 0.0
0.249948 -8.82344e-05 0.0
0.234343 -0.000250473 0.0
0.229568 1.37706e-05 0.0
0.247682 -4.71329e-05 0.0
0.240889 -1.0384e-05 0.0
0 0 0.0
0.0344146 2.9392e-05 0.0
0.103149 2.37207e-05 0.0
0.0622068 9.00738e-05 0.0
0.189765 2.10994e-05 0.0
0.213012 5.05352e-05 0.0
0.170621 2.1385e-05 0.0
0.14441 -1.98967e-05 0.0
0 0 0.0
0.0399017 -2.0554e-05 0.0
0.0998426 -7.86774e-05 0.0
0.0693292 -7.0381e-05 0.0
0.17068 -0.0001563 0.0
0.144469 -8.30204e-05 0.0
0.124478 -1.73294e-05 0.0
0.18372 -0.00023594 0.0
0.20416 -0.0003077 0.0
0.222003 -0.000356422 0.0
0.249013 -7.4582e-05 0.0
0.243942 -0.000212902 0.0
0.24902 -0.000155229 0.0
0.23843 -0.000339181 0.0
0.234316 3.90325e-05 0.0
0.244791 -1.05522e-05 0.0
0 0 0.0
0.032095 5.33296e-05 0.0
0.0941065 9.68352e-05 0.0
0.0650428 0.000142878 0.0
0.196779 8.66438e-05 0.0
0.217888 0.000116275 0.0
0.177628 0.000103273 0.0
0.148857 -1.3949e-05 0.0
0.120454 -8.0223e-05 0.0
0 0 0.0
0.0343514 -4.02022e-05 0.0
0.0716387 -0.000142243 0.0
0.15257 -0.000151568 0.0
0.12784 -3.33453e-05 0.0
0.187694 -0.000355976 0.0
0.211961 -0.000478028 0.0
0.248436 -5.6203e-05 0.0
0.225596 -0.000511088 0.0
0.249601 -0.00017338 0.0
0.246308 -0.000264167 0.0
0.241828 -0.000433578 0.0
0.238393 7.04124e-05 0.0
0 0 0.0
0.0335065 7.0644e-05 0.0
0.100143 9.80597e-05 0.0
0.0693342 0.000111363 0.0
0.206355 0.000202677 0.0
0.222391 0.000221953 0.0
0.190244 0.000299606 0.0
0.168616 0.00016239 0.0
0.14338 -5.803e-06 0.0
0.124449 -0.000107051 0.0
0.0972208 -0.000179416 0.0
0 0 0.0
0.0358779 -7.62573e-05 0.0
0.0672382 -0.000194899 0.0
0.13076 -0.00012966 0.0
0.168757 -0.000365327 0.0
0.199583 -0.00057748 0.0
0.218325 -0.000668747 0.0
0.241784 0.000103767 0.0
0.2497 -0.000165634 0.0
0.247714 -2.01556e-05 0.0
0.228885 -0.000709256 0.0
0.244515 -0.000520024 0.0
0.248398 -0.00030702 0.0
0.234282 0.000248364 0.0
0 0 0.0
0.0357167 4.65515e-05 0.0
0.123277 -0.00027039 0.0
0.071113 -7.85802e-05 0.0
0.208467 0.000385565 0.0
0.225034 0.000432866 0.0
0.198333 0.000553075 0.0
0.178208 0.000397939 0.0
0.147143 0.000130595 0.0
0.119614 -9.6163e-05 0.0
0.0972643 -0.000205217 0.0
0 0 0.0
0.0346329 -8.89e-05 0.0
0.0671665 -0.000183714 0.0
0.152911 -0.000502847 0.0
0.178392 -0.000679603 0.0
0.210138 -0.000854687 0.0
0.244472 0.000136858 0.0
0.248949 -8.58009e-05 0.0
0.231841 -0.00094883 0.0
0.24358 -0.000700547 0.0
0.249195 -0.000206899 0.0
0.24858 -0.000360281 0.0
0.235583 0.000422219 0.0
0.212889 -0.0013626 0.0
0 0 0.0
0.0366702 -4.76771e-05 0.0
0.142031 -0.000817345 0.0
0.100657 -0.000682262 0.0
0.0666831 -0.000359577 0.0
0.213686 0.000655649 0.0
0.187147 0.000762037 0.0
0.165885 0.00055697 0.0
0.123019 0.000122702 0.0
0.0931933 -0.000107691 0.0
0 0 0.0
0.0344891 -6.70759e-05 0.0
0.0641415 -2.85148e-05 0.0
0.16634 -0.00101704 0.0
0.187383 -0.00113312 0.0
0.159162 -0.00154107 0.0
0.246433 0.0001418 0.0
0.247641 7.0678e-05 0.0
0.23049 -0.00131272 0.0
0.239694 -0.00107777 0.0
0.247693 -0.000576893 0.0
0.239599 0.000490173 0.0
0.22885 0.000872172 0.0
0.199402 -0.001685 0.0
0.218255 -0.00183073 0.0
0 0 0.0
0.0344337 -0.000172722 0.0
0.127479 -0.00164726 0.0
0.0687767 -0.000737446 0.0
0.100011 -0.00141136 0.0
0.208231 0.0012102 0.0
0.190363 0.00121364 0.0
0.169139 0.00106946 0.0
0.141734 0.000602769 0.0
0.0960349 0.000226801 0.0
0 0 0.0
0.0328562 9.59749e-06 0.0
0.0663358 0.000295821 0.0
0.183881 -0.0020373 0.0
0.160449 -0.00234546 0.0
0.243806 0.000480559 0.0
0.248077 -6.49925e-05 0.0
0.234895 -0.00162655 0.0
0.243452 -0.00114967 0.0
0.247799 -0.000607377 0.0
0.237583 0.000956161 0.0
0.218086 0.00162339 0.0
0.203121 -0.00244864 0.0
0.222552 -0.00229871 0.0
0 0 0.0
0.0484822 -0.000579757 0.0
0.129635 -0.00281169 0.0
0.0923015 -0.00197832 0.0
0.202854 0.00180861 0.0
0.178967 0.00181809 0.0
0.149394 0.00162125 0.0
0.119998 0.000890711 0.0
0.079131 0.000883104 0.0
0 0 0.0
0.0341439 0.000138417 0.0
0.188288 -0.00313455 0.0
0.161636 -0.00339011 0.0
0.244731 0.000561168 0.0
0.247745 -0.000307743 0.0
0.238326 -0.00190653 0.0
0.245041 -0.0012758 0.0
0.238155 0.00130601 0.0
0.226229 0.00195332 0.0
0.209514 0.00244653 0.0
0.226277 -0.00278146 0.0
0.20973 -0.00323683 0.0
0 0 0.0
0.0499688 -0.000917639 0.0
0.130346 -0.00431405 0.0
0.0937395 -0.00288069 0.0
0.187899 0.00270565 0.0
0.161169 0.00277202 0.0
0.0480679 0.000532177 0.0
0.12914 0.00253966 0.0
0.0916318 0.00173356 0.0
0 0 0.0
0.188093 -0.00445895 0.0
0.161686 -0.00496752 0.0
0.244835 0.000637551 0.0
0.246754 -0.000359435 0.0
0.237497 -0.00247252 0.0
0.24394 -0.00162249 0.0
0.22554 0.00272012 0.0
0.237298 0.00180699 0.0
0.187616 0.00398826 0.0
0.209013 0.00345291 0.0
0.225699 -0.00351061 0.0
0.209224 -0.00438206 0.0
0 0 0.0
0.0520897 -0.00126808 0.0
0.131353 -0.00596166 0.0
0.0963212 -0.00405563 0.0
0.129736 0.00403253 0.0
0.161141 0.00425498 0.0
0.0493784 0.000862028 0.0
0.093136 0.00273801 0.0
0 0 0.0
0.187622 -0.00608216 0.0
0.161655 -0.0068109 0.0
0.243723 0.00090842 0.0
0.245482 -0.000396109 0.0
0.224902 -0.00435588 0.0
0.235872 -0.00348161 0.0
0.242579 -0.00201178 0.0
0.224738 0.00347661 0.0
0.236142 0.00241231 0.0
0.187199 0.00513686 0.0
0.208222 0.0046983 0.0
0.208426 -0.00575909 0.0
0 0 0.0
0.0548236 -0.00160692 0.0
0.13312 -0.00787058 0.0
0.0994061 -0.00503085 0.0
0.13044 0.00540432 0.0
0.160989 0.00600123 0.0
0.051414 0.00120121 0.0
0.0952534 0.00376007 0.0
0 0 0.0
0.161664 -0.0087919 0.0
0.186703 -0.00845599 0.0
0.242274 0.00121744 0.0
0.24383 -0.000449057 0.0
0.234581 -0.00415623 0.0
0.223112 -0.00599034 0.0
0.240806 -0.00246844 0.0
0.234634 0.00313005 0.0
0.223711 0.00435101 0.0
0.186442 0.00689464 0.0
0.207082 0.0061734 0.0
0.207268 -0.00737976 0.0
0 0 0.0
0.0577331 -0.00181189 0.0
0.1349 -0.00911276 0.0
0.103213 -0.00580377 0.0
0.13173 0.00702768 0.0
0.160866 0.00791786 0.0
0 0 0.0
0.09818 0.00470225 0.0
0.0537713 0.00147748 0.0
0.185711 -0.0105298 0.0
0.161913 -0.0107838 0.0
0.221616 -0.00715193 0.0
0.240446 0.00158304 0.0
0.241786 -0.000503018 0.0
0.239138 -0.00286598 0.0
0.233069 -0.00490106 0.0
0.23271 0.00395155 0.0
0.222108 0.00556229 0.0
0.185153 0.00935864 0.0
0.20556 0.00784125 0.0
0.205756 -0.00918719 0.0
0 0 0.0
0.0612726 -0.00191275 0.0
0.107118 -0.00625323 0.0
0.13761 -0.0102751 0.0
0.133907 0.00871308 0.0
0.160901 0.00982767 0.0
0 0 0.0
0.0568773 0.00170786 0.0
0.101341 0.00541095 0.0
0.184955 -0.0120344 0.0
0.162552 -0.0124888 0.0
0.21986 -0.00840464 0.0
0.229689 -0.00637586 0.0
0.238164 0.00199191 0.0
0.239262 -0.000559399 0.0
0.237191 -0.00330719 0.0
0.230325 0.0048721 0.0
0.220061 0.00691995 0.0
0.184285 0.0108142 0.0
0.203702 0.0096246 0.0
0.203928 -0.011069 0.0
0 0 0.0
0.0648874 -0.00189752 0.0
0.141763 -0.0110037 0.0
0.112461 -0.00641431 0.0
0.136052 0.0096721 0.0
0.161305 0.0115572 0.0
0.0600402 0.00182918 0.0
0 0 0.0
0.105863 0.005961 0.0
0.163763 -0.01376 0.0
0.18395 -0.0142591 0.0
0.216359 -0.0105031 0.0
0.226657 -0.00750398 0.0
0.234218 -0.00390802 0.0
0.233972 0.00266795 0.0
0.236226 -0.000638062 0.0
0.227438 0.00584374 0.0
0.216602 0.00888565 0.0
0.183015 0.0130251 0.0
0.201585 0.0113586 0.0
0.201903 -0.0128679 0.0
0 0 0.0
0.0685217 -0.00182067 0.0
0.117389 -0.00625062 0.0
0.165631 -0.0144175 0.0
0.145175 -0.0111131 0.0
0.139243 0.0103628 0.0
0.161996 0.0126224 0.0
0.0634304 0.00181211 0.0
0 0 0.0
0.109955 0.00610453 0.0
0.200168 -0.0141785 0.0
0.183613 -0.0152021 0.0
0.223921 -0.00836125 0.0
0.213418 -0.011871 0.0
0.228975 -0.00478253 0.0
0.232648 -0.000721592 0.0
0.231264 0.00302507 0.0
0.224076 0.00679295 0.0
0.214158 0.00999034 0.0
0.182457 0.0139898 0.0
0.163842 0.0135234 0.0
0.199414 0.0128195 0.0
0 0 0.0
0.121847 -0.0057884 0.0
0.0718772 -0.00170781 0.0
0.167648 -0.0144046 0.0
0.150361 -0.0105819 0.0
0.143031 0.0104967 0.0
0 0 0.0
0.0667576 0.0016949 0.0
0.115177 0.0058944 0.0
0.198575 -0.0150532 0.0
0.183626 -0.0159022 0.0
0.220956 -0.00910355 0.0
0.210345 -0.0128536 0.0
0.225791 -0.0051799 0.0
0.228557 -0.000810291 0.0
0.228276 0.00333733 0.0
0.165528 0.0135334 0.0
0.19764 0.0136594 0.0
0.220318 0.00756059 0.0
0.211601 0.0108705 0.0
0.182149 0.0146913 0.0
0 0 0.0
0.0745931 -0.00148798 0.0
0.12646 -0.00511489 0.0
0.170541 -0.0137293 0.0
0.155014 -0.00961068 0.0
0.119763 0.00537064 0.0
0.147819 0.00995308 0.0
0 0 0.0
0.070055 0.00148536 0.0
0.197025 -0.0153954 0.0
0.184316 -0.0155527 0.0
0.217062 -0.00971802 0.0
0.207378 -0.0132525 0.0
0.222372 -0.00548882 0.0
0.224038 -0.000921786 0.0
0.221974 0.0036887 0.0
0.168139 0.0128374 0.0
0.216316 0.00796688 0.0
0.19612 0.0139631 0.0
0.2073 0.0115719 0.0
0.182479 0.0144035 0.0
0 0 0.0
0.130887 -0.00420577 0.0
0.0772349 -0.00116942 0.0
0.174395 -0.0121055 0.0
0.159456 -0.0083132 0.0
0.123649 0.00466353 0.0
0.152212 0.00892389 0.0
0 0 0.0
0.0725383 0.00133437 0.0
0.185464 -0.014438 0.0
0.195883 -0.0149318 0.0
0.213149 -0.00986397 0.0
0.217862 -0.00566998 0.0
0.204692 -0.0129493 0.0
0.219316 -0.00103925 0.0
0.217444 0.00361532 0.0
0.212311 0.00789293 0.0
0.21569 -0.00343259 0.0
0.171115 0.0114699 0.0
0.204372 0.0112642 0.0
0.194356 0.0132129 0.0
0.183114 0.0136012 0.0
0 0 0.0
0.134017 -0.00345296 0.0
0.0793023 -0.000972926 0.0
0.177077 -0.0107251 0.0
0.163506 -0.00687733 0.0
0.127404 0.00376311 0.0
0.155799 0.00774796 0.0
0 0 0.0
0.0746857 0.00102717 0.0
0.186949 -0.0127461 0.0
0.195233 -0.0137378 0.0
0.209474 -0.00953058 0.0
0.202425 -0.0120115 0.0
0.211597 -0.00551935 0.0
0.215325 0.00113791 0.0
0.21201 0.00547292 0.0
0.206052 0.00909588 0.0
0.212474 -0.00129452 0.0
0.174119 0.00959897 0.0
0.198102 0.0114566 0.0
0.191341 0.0119926 0.0
0.184543 0.0113942 0.0
0 0 0.0
0.136827 -0.00270374 0.0
0.0808712 -0.000749718 0.0
0.180158 -0.0088739 0.0
0.167 -0.00549091 0.0
0.160134 0.00592728 0.0
0.130501 0.00282265 0.0
0 0 0.0
0.0765299 0.000702895 0.0
0.188587 -0.0107698 0.0
0.194975 -0.0120469 0.0
0.207777 -0.00517658 0.0
0.200636 -0.0106334 0.0
0.206237 -0.00876488 0.0
0.210698 0.00292154 0.0
0.20651 0.00659649 0.0
0.200424 0.00922891 0.0
0.208397 -0.00150577 0.0
0.176993 0.00752243 0.0
0.193228 0.0103431 0.0
0.185945 0.00916243 0.0
0 0 0.0
0.0819576 -0.000595479 0.0
0.139083 -0.00207811 0.0
0.16948 -0.00444971 0.0
0.19018 -0.00879622 0.0
0.182927 -0.00712063 0.0
0.163277 0.00432315 0.0
0.132869 0.00197122 0.0
0.0775854 0.000496978 0.0
0 0 0.0
0.199509 -0.00934643 0.0
0.195043 -0.0101718 0.0
0.205256 -0.00485879 0.0
0.203547 -0.00777907 0.0
0.198618 0.00735904 0.0
0.206885 0.00213978 0.0
0.203462 0.00524738 0.0
0.204969 -0.00175861 0.0
0.18727 0.0068041 0.0
0.179847 0.00503809 0.0
0.192933 0.00741567 0.0
0 0 0.0
0.0829598 -0.000456169 0.0
0.140924 -0.00159504 0.0
0.171838 -0.00344376 0.0
0.191338 -0.00746101 0.0
0.185708 -0.00538165 0.0
0.165668 0.00287787 0.0
0.134679 0.00114272 0.0
0.0783131 0.000280217 0.0
0 0 0.0
0.167473 0.00163803 0.0
0.198669 -0.00808652 0.0
0.195376 -0.00788025 0.0
0.200709 -0.0063608 0.0
0.203119 -0.00454385 0.0
0.196859 0.00461816 0.0
0.201 0.00370831 0.0
0.203715 0.00122022 0.0
0.202222 -0.00204712 0.0
0.18848 0.00458654 0.0
0.181789 0.00320887 0.0
0.192961 0.00514612 0.0
0 0 0.0
0.0837334 -0.000367061 0.0
0.142252 -0.00131523 0.0
0.173703 -0.00276924 0.0
0.192665 -0.00600381 0.0
0.187561 -0.00433116 0.0
0.0785919 0.000106543 0.0
0.135699 0.000533474 0.0
0 0 0.0
0.168438 0.000793394 0.0
0.197999 -0.00677625 0.0
0.195779 -0.00648076 0.0
0.19935 -0.00555077 0.0
0.200946 -0.00421748 0.0
0.196102 0.00304754 0.0
0.199077 0.00216849 0.0
0.200135 -0.00239321 0.0
0.200225 -0.000169021 0.0
0.189174 0.00311831 0.0
0.183128 0.00169449 0.0
0.193002 0.00309902 0.0
0 0 0.0
0.0844379 -0.000343485 0.0
0.143299 -0.00119084 0.0
0.175343 -0.00230807 0.0
0.194028 -0.00476333 0.0
0.196183 -0.00548747 0.0
0.189022 -0.00366167 0.0
0.0787513 -3.56891e-05 0.0
0.136187 7.00804e-05 0.0
0 0 0.0
0.16915 1.61252e-05 0.0
0.197486 -0.00551333 0.0
0.19855 -0.0050919 0.0
0.199343 -0.00403917 0.0
0.198933 -0.00268211 0.0
0.195504 0.00162155 0.0
0.19763 0.000746691 0.0
0.198557 -0.00107519 0.0
0.18406 0.00048459 0.0
0.189885 0.00145919 0.0
0.193043 0.00137054 0.0
0 0 0.0
0.0850685 -0.000387944 0.0
0.144293 -0.00118395 0.0
0.176543 -0.00219087 0.0
0.194751 -0.00434602 0.0
0.196591 -0.00489484 0.0
0.190231 -0.00332169 0.0
0.0786474 -0.000146113 0.0
0.136337 -0.000279275 0.0
0 0 0.0
0.184414 -0.000269995 0.0
0.136161 -0.000527515 0.0
0.169418 -0.000637365 0.0
0.197363 -0.00504058 0.0
0.197977 -0.00479978 0.0
0.197823 -0.00408555 0.0
0.198005 -0.00299692 0.0
0.197562 -0.00173233 0.0
0.194942 0.000150527 0.0
0.196206 -0.000961521 0.0
0.19038 -0.000138375 0.0
0.193044 0.000150662 0.0
0.197346 -0.00488317 0.0
0 0 0.0
0.0857491 -0.000424761 0.0
0.177608 -0.00226509 0.0
0.145244 -0.00129346 0.0
0.197006 -0.00469639 0.0
0.195728 -0.00408143 0.0
0.191226 -0.00328336 0.0
0.0784137 -0.000215132 0.0
0 0 0.0
0.190532 -0.000888431 0.0
0.184658 -0.00101824 0.0
0.169386 -0.00106595 0.0
0.0779176 -0.000240984 0.0
0.135847 -0.000729657 0.0
0.197512 -0.0047167 0.0
0.197298 -0.00426675 0.0
0.197076 -0.00347651 0.0
0.196561 -0.00388932 0.0
0.196788 -0.00235147 0.0
0.194491 -0.00106741 0.0
0.195487 -0.00197659 0.0
0.192956 -0.000852207 0.0
0.197365 -0.00494231 0.0
0.0864467 -0.000499413 0.0
0 0 0.0
0.178434 -0.0024483 0.0
0.146221 -0.00148018 0.0
0.197389 -0.00481664 0.0
0.196266 -0.00417361 0.0
0.192141 -0.00349022 0.0
0 0 0.0
0.190501 -0.0016958 0.0
0.184529 -0.00169615 0.0
0.169075 -0.00134669 0.0
0.0775162 -0.000291871 0.0
0.135306 -0.000886747 0.0
0.197138 -0.0050226 0.0
0.196907 -0.00453943 0.0
0.196144 -0.00433489 0.0
0.195741 -0.00342536 0.0
0.194086 -0.00207413 0.0
0.194911 -0.00286761 0.0
0.192724 -0.00207534 0.0
0.197484 -0.00528423 0.0
0 0 0.0
0.0874 -0.00058805 0.0
0.179443 -0.00281546 0.0
0.147226 -0.00172915 0.0
0.19297 -0.00390994 0.0
0.197782 -0.00522657 0.0
0.197071 -0.00462866 0.0
0 0 0.0
0 0 0.0
0.190303 -0.00235734 0.0
0.184283 -0.0021636 0.0
0.168654 -0.00163509 0.0
0.134653 -0.00102353 0.0
0.0769789 -0.000346036 0.0
0.197003 -0.00551445 0.0
0.196523 -0.00505218 0.0
0.19451 -0.0035161 0.0
0.195698 -0.00500108 0.0
0.195199 -0.00417033 0.0
0.193691 -0.00293871 0.0
0.192423 -0.00283743 0.0
0.196924 -0.00606216 0.0
0.197589 -0.00587363 0.0
0.0885532 -0.000712216 0.0
0.148473 -0.00205869 0.0
0.180574 -0.00333556 0.0
0.193717 -0.00439851 0.0
0.198164 -0.0058764 0.0
0.197549 -0.00512964 0.0
0 0 0.0
0 0 0.0
0.183854 -0.00248272 0.0
0.189821 -0.00305094 0.0
0.133925 -0.00113543 0.0
0.167904 -0.00192525 0.0
0.0763398 -0.000383343 0.0
0.196127 -0.00603468 0.0
0.195295 -0.00577153 0.0
0.192037 -0.00351491 0.0
0.194122 -0.00413577 0.0
0.194827 -0.0047618 0.0
0.193104 -0.00396331 0.0
0.196863 -0.00670597 0.0
0.19779 -0.00703232 0.0
0.198532 -0.00678734 0.0
0.0899157 -0.00090735 0.0
0.150027 -0.00251012 0.0
0.181975 -0.00416509 0.0
0.194618 -0.00516057 0.0
0.198342 -0.00621012 0.0
0 0 0.0
0 0 0.0
0.183135 -0.00293338 0.0
0.18932 -0.0035702 0.0
0.133009 -0.0012746 0.0
0.167105 -0.00216804 0.0
0.0756373 -0.000415025 0.0
0.194466 -0.00537561 0.0
0.1949 -0.00662701 0.0
0.195841 -0.0069326 0.0
0.191548 -0.00414373 0.0
0.193642 -0.00490966 0.0
0.192608 -0.00469657 0.0
0.188691 -0.00407384 0.0
0.196697 -0.00815587 0.0
0 0 0.0
0.197853 -0.00819579 0.0
0.19901 -0.00735558 0.0
0.198872 -0.00791593 0.0
0.0915189 -0.00111942 0.0
0.183285 -0.00493728 0.0
0.15209 -0.00320607 0.0
0.195826 -0.00645672 0.0
0 0 0.0
0 0 0.0
0 0 0.0
0 0 0.0
0 0 0.0
0.0749306 -0.000446086 0.0
0.166243 -0.00241639 0.0
0.182406 -0.00330617 0.0
0.132161 -0.00138563 0.0
0.193978 -0.00620324 0.0
0.194452 -0.00760295 0.0
0.195544 -0.00797429 0.0
0.192128 -0.00527949 0.0
0.190934 -0.00476353 0.0
0.192875 -0.00601986 0.0
0.190345 -0.0052934 0.0
0.188093 -0.00444418 0.0
0.196473 -0.00945657 0.0
0.197883 -0.00953227 0.0
0 0 0.0
-0.000407549 0.00024331 0.0
0 0 0.0
-0.000824386 0.00909673 0.0
0.19919 -0.00934186 0.0
0.199516 -0.00839661 0.0
0.0937042 -0.00142872 0.0
0.184951 -0.00603501 0.0
0.154386 -0.00404151 0.0
0.196993 -0.0078748 0.0
0 0 0.0
0 0 0.0
0 0 0.0
-0.000707941 0.00665207 0.0
-0.000529221 0.00156923 0.0
-0.00139498 0.001438 0.0
0 0 0.0
0.0740908 -0.000484669 0.0
0.165355 -0.00261818 0.0
0.181513 -0.00368003 0.0
0.130946 -0.00152278 0.0
0.193441 -0.00711478 0.0
0.193917 -0.00869512 0.0
0.195151 -0.00916362 0.0
0.191581 -0.00588572 0.0
0.192368 -0.00670454 0.0
0.189645 -0.00582519 0.0
0.186967 -0.0050793 0.0
0.196162 -0.010933 0.0
0.197406 -0.0110004 0.0
0.198648 -0.0108852 0.0
0 0 0.0
-0.00160173 0.000566301 0.0
0 0 0.0
0 0 0.0
-0.00273635 0.015905 0.0
-0.00293972 0.0125233 0.0
0.199694 -0.0106692 0.0
0.200161 -0.0101042 0.0
0.156856 -0.00500799 0.0
0.0962335 -0.00185098 0.0
0.186913 -0.00747921 0.0
0.198172 -0.00964542 0.0
0 0 0.0
-0.00198289 0.00556727 0.0
-0.00250975 0.00886832 0.0
-0.00236247 0.00367649 0.0
-0.00369334 0.00240519 0.0
0 0 0.0
0.0732034 -0.000522994 0.0
0.164222 -0.00286058 0.0
0.180468 -0.00404858 0.0
0.129753 -0.00164979 0.0
0.192802 -0.00809972 0.0
0.193264 -0.0098937 0.0
0.19463 -0.0105151 0.0
0.190539 -0.00692231 0.0
0.191786 -0.00740569 0.0
0.188702 -0.00648242 0.0
0.179381 -0.00444158 0.0
0.185952 -0.00560533 0.0
0.195782 -0.0122641 0.0
0.197652 -0.0123856 0.0
0.199507 -0.012504 0.0
0 0 0.0
-0.00389601 0.000857276 0.0
0 0 0.0
0 0 0.0
0 0 0.0
0 0 0.0
-0.00576465 0.0121167 0.0
-0.000823065 0.0133922 0.0
-0.00276217 0.0187484 0.0
-0.0060837 0.0212085 0.0
-0.00545941 0.016764 0.0
0 0 0.0
-0.000265788 0.0189444 0.0
0.200867 -0.0128082 0.0
0.19922 -0.0113962 0.0
0 0 0.0
0.0998541 -0.0025129 0.0
0.16026 -0.00635179 0.0
0.189608 -0.00985597 0.0
0 0 0.0
0 0 0.0
-0.00486807 0.00815552 0.0
-0.00545605 0.00528352 0.0
-0.00683905 0.00297639 0.0
0 0 0.0
0.0721856 -0.000562694 0.0
0.162775 -0.00314535 0.0
0.128418 -0.00177452 0.0
0.178303 -0.00473459 0.0
0.19204 -0.00916666 0.0
0.192665 -0.0108698 0.0
0.193954 -0.0120398 0.0
0.189758 -0.00757955 0.0
0.190944 -0.00833413 0.0
0.187627 -0.00714979 0.0
0.185032 -0.00599044 0.0
0.198454 -0.0138515 0.0
0.195263 -0.0137351 0.0
0.197107 -0.0152161 0.0
0.199415 -0.0155706 0.0
0.2013 -0.0156251 0.0
0 0 0.0
-0.0057917 0.000879313 0.0
-0.000497727 0.018974 0.0
-0.00235635 0.0289114 0.0
-0.000836145 0.0159965 0.0
-0.00846064 0.0149928 0.0