# vtk DataFile Version 3.0
Mesh NS-CD Problem
ASCII
DATASET UNSTRUCTURED_GRID
POINTS 10839 float
-2 0.3 0.0
-2 0.4 0.0
-2 0.35 0.0
-2 0.45 0.0
-2 0.5 0.0
-2 0.55 0.0
-2 0 0.0
-2 0.05 0.0
-2 0.85 0.0
-2 0.9 0.0
-2 0.1 0.0
-2 0.15 0.0
-2 0.25 0.0
-2 0.2 0.0
-1.96653 0.266667 0.0
-1.96524 0.415385 0.0
-1.96485 0.315 0.0
-1.96348 0.363636 0.0
-1.96414 0.464286 0.0
-2 0.6 0.0
-1.96538 0.584615 0.0
-1.96538 0.538462 0.0
-1.94979 0 0.0
-1.96653 0.0666666 0.0
-1.93306 0.0333333 0.0
-2 0.8 0.0
-2 0.75 0.0
-2 0.7 0.0
-2 0.65 0.0
-1.96249 0.7375 0.0
-1.96666 0.833333 0.0
-2 1 0.0
-2 0.95 0.0
-1.96249 0.8875 0.0
-1.96666 0.933333 0.0
-1.96234 0.1125 0.0
-1.96653 0.166667 0.0
-1.93724 0.225 0.0
-1.92971 0.28 0.0
-1.93048 0.380769 0.0
-1.93048 0.423077 0.0
-1.89958 0.3375 0.0
-1.9292 0.484203 0.0
-1.92117 0.530907 0.0
-1.96363 0.636364 0.0
-1.93076 0.576923 0.0
-1.89958 0 0.0
-1.88703 0.0375 0.0
-1.90963 0.08 0.0
-1.86611 0.0666666 0.0
-1.93749 0.775 0.0
-1.93635 0.672727 0.0
-1.92999 0.72 0.0
-1.93332 0.866667 0.0
-1.92856 0.821429 0.0
-1.94999 1 0.0
-1.92499 0.9625 0.0
-1.92499 0.925 0.0
-1.89998 0.9 0.0
-1.89958 0.125 0.0
-1.92827 0.178571 0.0
-1.89958 0.233333 0.0
-1.89045 0.290909 0.0
-1.86096 0.311538 0.0
-1.89241 0.392857 0.0
-1.89334 0.448489 0.0
-1.85655 0.357143 0.0
-1.89614 0.653846 0.0
-1.89427 0.504121 0.0
-1.8952 0.559753 0.0
-1.89614 0.615385 0.0
-1.84937 0 0.0
-1.83264 0.0333333 0.0
-1.85655 0.107143 0.0
-1.81172 0.075 0.0
-1.89998 0.766667 0.0
-1.89089 0.709091 0.0
-1.87498 0.85 0.0
-1.85998 0.79 0.0
-1.88748 0.8125 0.0
-1.89998 1 0.0
-1.88748 0.9625 0.0
-1.86664 0.933333 0.0
-1.85712 0.892857 0.0
-1.87448 0.15 0.0
-1.86611 0.194444 0.0
-1.83264 0.133333 0.0
-1.83264 0.2625 0.0
-1.82068 0.321429 0.0
-1.85664 0.404762 0.0
-1.85674 0.452381 0.0
-1.85683 0.5 0.0
-1.81184 0.375 0.0
-1.85712 0.642857 0.0
-1.85693 0.547619 0.0
-1.85702 0.595238 0.0
-1.79917 0 0.0
-1.78482 0.0357143 0.0
-1.79917 0.116667 0.0
-1.76569 0.0666666 0.0
-1.85452 0.745455 0.0
-1.82689 0.692308 0.0
-1.81815 0.781818 0.0
-1.82497 0.825 0.0
-1.84997 1 0.0
-1.8333 0.958333 0.0
-1.81247 0.8875 0.0
-1.81247 0.925 0.0
-1.81742 0.218182 0.0
-1.82427 0.175 0.0
-1.77634 0.145455 0.0
-1.79144 0.242308 0.0
-1.78482 0.285714 0.0
-1.77469 0.332653 0.0
-1.81215 0.529762 0.0
-1.81194 0.422619 0.0
-1.81203 0.470238 0.0
-1.76714 0.392857 0.0
-1.81234 0.625 0.0
-1.79732 0.571429 0.0
-1.74896 0 0.0
-1.73222 0.0333333 0.0
-1.75398 0.105 0.0
-1.71883 0.07 0.0
-1.79227 0.730769 0.0
-1.78007 0.679121 0.0
-1.75765 0.769231 0.0
-1.78178 0.818182 0.0
-1.78996 0.86 0.0
-1.79996 1 0.0
-1.78568 0.964286 0.0
-1.76663 0.922222 0.0
-1.76569 0.1875 0.0
-1.73222 0.15 0.0
-1.74896 0.25 0.0
-1.73714 0.304762 0.0
-1.76743 0.537202 0.0
-1.72869 0.343878 0.0
-1.76732 0.485119 0.0
-1.76723 0.440476 0.0
-1.72243 0.410714 0.0
-1.76757 0.607143 0.0
-1.69875 0 0.0
-1.68369 0.035 0.0
-1.69875 0.1125 0.0
-1.66528 0.075 0.0
-1.74341 0.708974 0.0
-1.73324 0.665934 0.0
-1.70441 0.74478 0.0
-1.71423 0.785714 0.0
-1.72303 0.826923 0.0
-1.74541 0.854545 0.0
-1.74541 0.890909 0.0
-1.74996 1 0.0
-1.73745 0.9625 0.0
-1.71359 0.927273 0.0
-1.68716 0.153846 0.0
-1.7131 0.214286 0.0
-1.70725 0.275 0.0
-1.69712 0.321939 0.0
-1.72279 0.589286 0.0
-1.72261 0.5 0.0
-1.7227 0.544643 0.0
-1.6827 0.355102 0.0
-1.67773 0.428571 0.0
-1.70763 0.464286 0.0
-1.70369 0.62449 0.0
-1.64854 0 0.0
-1.63181 0.0375 0.0
-1.64137 0.142857 0.0
-1.61764 0.0769231 0.0
-1.69458 0.703846 0.0
-1.67471 0.657437 0.0
-1.66143 0.727637 0.0
-1.67125 0.768571 0.0
-1.67851 0.821429 0.0
-1.68841 0.861538 0.0
-1.70904 0.890909 0.0
-1.69995 1 0.0
-1.68176 0.963636 0.0
-1.67267 0.927273 0.0
-1.65427 0.187143 0.0
-1.66718 0.231429 0.0
-1.66554 0.3 0.0
-1.67802 0.571429 0.0
-1.67792 0.523809 0.0
-1.6367 0.366327 0.0
-1.63682 0.423469 0.0
-1.62568 0.502976 0.0
-1.6629 0.470238 0.0
-1.65254 0.618367 0.0
-1.6059 0.307143 0.0
-1.59833 0 0.0
-1.58288 0.0384615 0.0
-1.60563 0.169643 0.0
-1.58179 0.112271 0.0
-1.56964 0.0714286 0.0
-1.64574 0.690385 0.0
-1.62827 0.751429 0.0
-1.63371 0.791071 0.0
-1.64279 0.857143 0.0
-1.65378 0.896154 0.0
-1.64994 1 0.0
-1.6363 0.963636 0.0
-1.61916 0.930769 0.0
-1.61345 0.209107 0.0
-1.62126 0.248571 0.0
-1.56989 0.196429 0.0
-1.63324 0.553571 0.0
-1.58846 0.535714 0.0
-1.59408 0.361905 0.0
-1.59161 0.402211 0.0
-1.58832 0.464286 0.0
-1.61504 0.598581 0.0
-1.59683 0.64359 0.0
-1.57899 0.274107 0.0
-1.56176 0.322381 0.0
-1.54812 0 0.0
-1.53378 0.0357143 0.0
-1.54593 0.147619 0.0
-1.53385 0.0732143 0.0
-1.53393 0.110714 0.0
-1.58522 0.704286 0.0
-1.58709 0.745 0.0
-1.58896 0.785714 0.0
-1.60695 0.830357 0.0
-1.60707 0.892857 0.0
-1.59993 1 0.0
-1.58454 0.965385 0.0
-1.57135 0.928571 0.0
-1.55209 0.241071 0.0
-1.5291 0.198214 0.0
-1.56936 0.570918 0.0
-1.54369 0.517857 0.0
-1.5464 0.380952 0.0
-1.54564 0.427721 0.0
-1.54488 0.47449 0.0
-1.55026 0.606122 0.0
-1.54222 0.677143 0.0
-1.52943 0.282857 0.0
-1.52143 0.33619 0.0
-1.49792 0 0.0
-1.49802 0.05 0.0
-1.49822 0.15 0.0
-1.49312 0.1 0.0
-1.5423 0.717143 0.0
-1.54419 0.767857 0.0
-1.54727 0.819048 0.0
-1.57122 0.861905 0.0
-1.53553 0.914286 0.0
-1.54992 1 0.0
-1.53563 0.964286 0.0
-1.49842 0.25 0.0
-1.48831 0.2 0.0
-1.5214 0.558929 0.0
-1.49891 0.5 0.0
-1.49871 0.4 0.0
-1.47631 0.45 0.0
-1.49911 0.6 0.0
-1.49921 0.65 0.0
-1.49931 0.7 0.0
-1.48111 0.35 0.0
-1.48351 0.3 0.0
-1.44771 0 0.0
-1.44782 0.05 0.0
-1.44804 0.15 0.0
-1.44793 0.1 0.0
-1.49941 0.75 0.0
-1.49951 0.8 0.0
-1.49981 0.95 0.0
-1.49961 0.85 0.0
-1.49971 0.9 0.0
-1.49991 1 0.0
-1.44826 0.25 0.0
-1.43815 0.2 0.0
-1.47151 0.55 0.0
-1.44881 0.5 0.0
-1.44859 0.4 0.0
-1.42619 0.45 0.0
-1.44913 0.65 0.0
-1.44902 0.6 0.0
-1.44935 0.75 0.0
-1.44924 0.7 0.0
-1.43972 0.35 0.0
-1.43336 0.3 0.0
-1.3975 0 0.0
-1.39762 0.05 0.0
-1.39786 0.15 0.0
-1.39274 0.1 0.0
-1.44957 0.85 0.0
-1.44946 0.8 0.0
-1.4523 0.95 0.0
-1.44968 0.9 0.0
-1.4499 1 0.0
-1.3981 0.25 0.0
-1.38798 0.2 0.0
-1.42141 0.55 0.0
-1.3987 0.5 0.0
-1.39834 0.35 0.0
-1.37845 0.4 0.0
-1.37607 0.45 0.0
-1.40784 0.65 0.0
-1.39894 0.6 0.0
-1.41185 0.75 0.0
-1.39918 0.7 0.0
-1.38322 0.3 0.0
-1.34729 0 0.0
-1.34492 0.05 0.0
-1.34018 0.15 0.0
-1.34255 0.1 0.0
-1.40707 0.85 0.0
-1.39941 0.8 0.0
-1.39977 0.95 0.0
-1.39965 0.9 0.0
-1.39989 1 0.0
-1.33781 0.2 0.0
-1.33544 0.25 0.0
-1.37131 0.55 0.0
-1.34859 0.5 0.0
-1.33833 0.4 0.0
-1.3307 0.35 0.0
-1.32595 0.45 0.0
-1.34885 0.6 0.0
-1.36655 0.65 0.0
-1.36179 0.75 0.0
-1.34911 0.7 0.0
-1.33307 0.3 0.0
-1.29708 0 0.0
-1.29722 0.05 0.0
-1.2975 0.15 0.0
-1.29236 0.1 0.0
-1.35703 0.85 0.0
-1.34937 0.8 0.0
-1.34988 1 0.0
-1.34962 0.9 0.0
-1.35226 0.95 0.0
-1.28528 0.25 0.0
-1.28764 0.2 0.0
-1.28931 0.35 0.0
-1.32121 0.55 0.0
-1.29848 0.5 0.0
-1.28709 0.45 0.0
-1.2982 0.4 0.0
-1.29876 0.6 0.0
-1.31647 0.65 0.0
-1.29918 0.75 0.0
-1.29904 0.7 0.0
-1.28292 0.3 0.0
-1.24687 0 0.0
-1.24702 0.05 0.0
-1.24717 0.1 0.0
-1.24732 0.15 0.0
-1.29946 0.85 0.0
-1.29932 0.8 0.0
-1.29987 1 0.0
-1.29974 0.95 0.0
-1.30462 0.9 0.0
-1.24762 0.25 0.0
-1.23747 0.2 0.0
-1.24792 0.35 0.0
-1.22807 0.4 0.0
-1.27111 0.55 0.0
-1.24837 0.5 0.0
-1.24822 0.45 0.0
-1.24867 0.6 0.0
-1.26639 0.65 0.0
-1.26167 0.75 0.0
-1.24897 0.7 0.0
-1.23277 0.3 0.0
-1.19667 0 0.0
-1.19683 0.05 0.0
-1.18964 0.15 0.0
-1.19198 0.1 0.0
-1.25695 0.85 0.0
-1.24927 0.8 0.0
-1.25223 0.95 0.0
-1.24987 1 0.0
-1.24957 0.9 0.0
-1.1873 0.2 0.0
-1.18496 0.25 0.0
-1.18028 0.35 0.0
-1.17794 0.4 0.0
-1.1981 0.45 0.0
-1.19842 0.55 0.0
-1.19826 0.5 0.0
-1.19858 0.6 0.0
-1.19874 0.65 0.0
-1.19906 0.75 0.0
-1.1989 0.7 0.0
-1.18262 0.3 0.0
-1.14646 0 0.0
-1.14663 0.05 0.0
-1.1418 0.1 0.0
-1.13713 0.2 0.0
-1.14697 0.15 0.0
-1.20691 0.85 0.0
-1.20926 0.8 0.0
-1.20221 0.95 0.0
-1.19986 1 0.0
-1.20456 0.9 0.0
-1.13997 0.3 0.0
-1.14731 0.25 0.0
-1.13781 0.4 0.0
-1.13014 0.35 0.0
-1.12548 0.45 0.0
-1.14815 0.5 0.0
-1.15962 0.55 0.0
-1.14849 0.6 0.0
-1.15745 0.65 0.0
-1.16155 0.75 0.0
-1.14917 0.8 0.0
-1.14883 0.7 0.0
-1.09625 0 0.0
-1.09661 0.1 0.0
-1.09393 0.05 0.0
-1.09697 0.2 0.0
-1.08929 0.15 0.0
-1.15687 0.85 0.0
-1.14985 1 0.0
-1.15219 0.95 0.0
-1.14951 0.9 0.0
-1.09733 0.3 0.0
-1.08465 0.25 0.0
-1.09769 0.4 0.0
-1.08 0.35 0.0
-1.08661 0.45 0.0
-1.09804 0.5 0.0
-1.12082 0.55 0.0
-1.10916 0.8 0.0
-1.10629 0.7 0.0
-1.0984 0.6 0.0
-1.11616 0.65 0.0
-1.11149 0.75 0.0
-1.04604 0 0.0
-1.04623 0.05 0.0
-1.04642 0.1 0.0
-1.0468 0.2 0.0
-1.03911 0.15 0.0
-1.09948 0.9 0.0
-1.0993 0.85 0.0
-1.09984 1 0.0
-1.09966 0.95 0.0
-1.04718 0.3 0.0
-1.03449 0.25 0.0
-1.04756 0.4 0.0
-1.02986 0.35 0.0
-1.04775 0.45 0.0
-1.04794 0.5 0.0
-1.04813 0.55 0.0
-1.05911 0.8 0.0
-1.04831 0.6 0.0
-1.06376 0.7 0.0
-1.0485 0.65 0.0
-1.04888 0.75 0.0
-0.995833 0 0.0
-0.991231 0.1 0.0
-0.996033 0.05 0.0
-0.986629 0.2 0.0
-0.98893 0.15 0.0
-1.05447 0.9 0.0
-1.04926 0.85 0.0
-1.04983 1 0.0
-1.04964 0.95 0.0
-0.984328 0.25 0.0
-0.99703 0.3 0.0
-0.997429 0.4 0.0
-0.997628 0.45 0.0
-0.979726 0.35 0.0
-0.997827 0.5 0.0
-0.998027 0.55 0.0
-0.998226 0.6 0.0
-0.961416 0.475 0.0
-1.00907 0.8 0.0
-0.998426 0.65 0.0
-0.998625 0.7 0.0
-1.01138 0.75 0.0
-0.945625 0 0.0
-0.946044 0.1 0.0
-0.943334 0.05 0.0
-0.946463 0.2 0.0
-0.938752 0.15 0.0
-1.00444 0.9 0.0
-1.00675 0.85 0.0
-0.999821 1 0.0
-1.00213 0.95 0.0
-0.93417 0.25 0.0
-0.946881 0.3 0.0
-0.9473 0.4 0.0
-0.929588 0.35 0.0
-0.925005 0.45 0.0
-0.960371 0.525 0.0
-0.959325 0.575 0.0
-0.958279 0.625 0.0
-0.922714 0.5 0.0
-0.959017 0.8 0.0
-0.957233 0.675 0.0
-0.952999 0.7125 0.0
-0.948766 0.75 0.0
-0.895417 0 0.0
-0.895855 0.1 0.0
-0.893136 0.05 0.0
-0.896294 0.2 0.0
-0.888573 0.15 0.0
-0.949184 0.85 0.0
-0.954415 0.9 0.0
-0.949812 1 0.0
-0.949603 0.95 0.0
-0.884011 0.25 0.0
-0.896733 0.3 0.0
-0.874887 0.45 0.0
-0.879449 0.35 0.0
-0.897171 0.4 0.0
-0.920423 0.55 0.0
-0.918132 0.6 0.0
-0.915841 0.65 0.0
-0.872606 0.5 0.0
-0.908968 0.8 0.0
-0.91355 0.7 0.0
-0.898707 0.75 0.0
-0.845208 0 0.0
-0.845438 0.05 0.0
-0.845667 0.1 0.0
-0.845896 0.15 0.0
-0.833853 0.25 0.0
-0.846126 0.2 0.0
-0.899146 0.85 0.0
-0.904386 0.9 0.0
-0.899584 0.95 0.0
-0.899804 1 0.0
-0.838062 0.35 0.0
[...]
POINT_DATA 10839
VECTORS Velocity float
0.21 0 0.0
0.24 0 0.0
0.2275 0 0.0
0.2475 0 0.0
0.25 0 0.0
0.2475 0 0.0
0 0 0.0
0.0475 0 0.0
0.1275 0 0.0
0.09 0 0.0
0.09 0 0.0
0.1275 0 0.0
0.1875 0 0.0
0.16 0 0.0
0.195557 -2.40606e-05 0.0
0.242841 -3.28523e-05 0.0
0.215776 -2.86511e-05 0.0
0.231406 -3.23083e-05 0.0
0.248725 -3.49822e-05 0.0
0.24 0 0.0
0.24284 -3.2778e-05 0.0
0.24852 -3.36882e-05 0.0
0 0 0.0
0.0622239 -4.17647e-06 0.0
0.0322269 -2.76008e-06 0.0
0.16 0 0.0
0.1875 0 0.0
0.21 0 0.0
0.2275 0 0.0
0.193592 -2.70075e-05 0.0
0.138887 -1.49744e-05 0.0
0 0 0.0
0.0475 0 0.0
0.0998415 -1.03895e-05 0.0
0.0622206 -4.2232e-06 0.0
0.0998462 -1.08572e-05 0.0
0.138891 -1.51092e-05 0.0
0.17438 -3.79231e-05 0.0
0.201606 -5.19852e-05 0.0
0.235787 -6.35129e-05 0.0
0.244085 -6.64677e-05 0.0
0.223602 -8.51678e-05 0.0
0.249751 -6.94521e-05 0.0
0.249044 -7.74007e-05 0.0
0.231404 -3.28336e-05 0.0
0.244081 -6.56783e-05 0.0
0 0 0.0
0.036108 -5.34838e-06 0.0
0.0736127 -1.49655e-05 0.0
0.0622491 -1.64099e-05 0.0
0.17437 -3.73615e-05 0.0
0.220162 -5.19748e-05 0.0
0.201594 -5.20606e-05 0.0
0.115548 -2.23695e-05 0.0
0.146676 -3.46976e-05 0.0
0 0 0.0
0.0360874 -3.59883e-06 0.0
0.0693661 -1.16914e-05 0.0
0.0899834 -2.32384e-05 0.0
0.109391 -3.14602e-05 0.0
0.146692 -3.40296e-05 0.0
0.178902 -6.36512e-05 0.0
0.206293 -8.32934e-05 0.0
0.214501 -0.000112336 0.0
0.238527 -9.96338e-05 0.0
0.24735 -0.000103765 0.0
0.229607 -0.000126891 0.0
0.226323 -8.94958e-05 0.0
0.249983 -0.000104281 0.0
0.246426 -0.000101445 0.0
0.23668 -9.54934e-05 0.0
0 0 0.0
0.0322505 -6.05283e-06 0.0
0.0956966 -3.57548e-05 0.0
0.0694293 -2.69515e-05 0.0
0.178876 -6.26772e-05 0.0
0.206269 -8.39199e-05 0.0
0.127476 -4.82897e-05 0.0
0.165873 -7.93708e-05 0.0
0.152325 -5.67791e-05 0.0
0 0 0.0
0.0360796 -5.17988e-06 0.0
0.0621958 -1.62342e-05 0.0
0.0956299 -3.64252e-05 0.0
0.127525 -4.87602e-05 0.0
0.156661 -7.09073e-05 0.0
0.115601 -5.60256e-05 0.0
0.193626 -0.000117145 0.0
0.218141 -0.00014835 0.0
0.24094 -0.00013523 0.0
0.247737 -0.000140263 0.0
0.25 -0.0001418 0.0
0.234398 -0.000171825 0.0
0.229576 -0.000125134 0.0
0.247727 -0.000139953 0.0
0.240919 -0.000134991 0.0
0 0 0.0
0.0344871 -8.39447e-06 0.0
0.103121 -5.50805e-05 0.0
0.0623031 -2.73196e-05 0.0
0.189727 -9.94841e-05 0.0
0.212988 -0.000139131 0.0
0.170534 -0.000107787 0.0
0.144329 -7.99394e-05 0.0
0 0 0.0
0.0398982 -8.93344e-06 0.0
0.0997861 -5.00337e-05 0.0
0.0693212 -2.65039e-05 0.0
0.170624 -0.00010792 0.0
0.144421 -8.16712e-05 0.0
0.124377 -8.28838e-05 0.0
0.18365 -0.000136562 0.0
0.204132 -0.000163599 0.0
0.222038 -0.000192734 0.0
0.249109 -0.000186353 0.0
0.244027 -0.000181371 0.0
0.24912 -0.000186362 0.0
0.238551 -0.00021901 0.0
0.234353 -0.000170813 0.0
0.244883 -0.000196502 0.0
0 0 0.0
0.0322917 -8.89921e-06 0.0
0.0940743 -5.79495e-05 0.0
0.0652174 -3.46134e-05 0.0
0.196696 -0.000149366 0.0
0.217871 -0.000183651 0.0
0.177437 -0.000151682 0.0
0.14869 -0.000105692 0.0
0.120329 -7.39098e-05 0.0
0 0 0.0
0.0343909 -8.47393e-06 0.0
0.0716442 -3.46993e-05 0.0
0.152425 -0.000118617 0.0
0.127615 -0.000103068 0.0
0.187579 -0.000169578 0.0
0.211951 -0.000211384 0.0
0.248605 -0.000231581 0.0
0.225686 -0.000239596 0.0
0.249783 -0.000233265 0.0
0.246474 -0.000229322 0.0
0.242065 -0.00026864 0.0
0.23849 -0.000218394 0.0
0 0 0.0
0.033874 -1.11694e-05 0.0
0.0999934 -7.7553e-05 0.0
0.0695453 -4.616e-05 0.0
0.20626 -0.000197855 0.0
0.222404 -0.000230768 0.0
0.189975 -0.000205747 0.0
0.168253 -0.000166043 0.0
0.143003 -0.000127253 0.0
0.124194 -9.37826e-05 0.0
0.0970838 -6.2925e-05 0.0
0 0 0.0
0.0360211 -1.08083e-05 0.0
0.0673148 -3.72241e-05 0.0
0.130335 -0.000124735 0.0
0.168483 -0.000166861 0.0
0.199473 -0.000217843 0.0
0.218379 -0.000255807 0.0
0.241992 -0.000269301 0.0
0.25 -0.000281141 0.0
0.247989 -0.000277856 0.0
0.229082 -0.000288791 0.0
0.244938 -0.00032026 0.0
0.248741 -0.000295116 0.0
0.234445 -0.00027602 0.0
0 0 0.0
0.0362323 -1.442e-05 0.0
0.12266 -0.000127924 0.0
0.0712297 -5.46725e-05 0.0
0.208349 -0.000242313 0.0
0.225126 -0.00028861 0.0
0.198047 -0.000251751 0.0
0.177724 -0.000208338 0.0
0.146525 -0.000153481 0.0
0.119131 -0.000107093 0.0
0.0970508 -7.1454e-05 0.0
0 0 0.0
0.034939 -1.21125e-05 0.0
0.0672775 -4.19528e-05 0.0
0.152302 -0.000174635 0.0
0.178018 -0.000213278 0.0
0.210117 -0.000269973 0.0
0.244858 -0.000320185 0.0
0.24942 -0.000328941 0.0
0.232226 -0.000340106 0.0
0.244198 -0.000364691 0.0
0.249988 -0.000389387 0.0
0.249132 -0.000345727 0.0
0.235912 -0.000330981 0.0
0.212964 -0.000330135 0.0
0 0 0.0
0.0371612 -1.70072e-05 0.0
0.141112 -0.000178308 0.0
0.099959 -0.000107692 0.0
0.0666004 -5.33139e-05 0.0
0.213628 -0.000295206 0.0
0.186606 -0.00025699 0.0
0.165083 -0.000209028 0.0
0.122239 -0.000128597 0.0
0.0928653 -7.84605e-05 0.0
0 0 0.0
0.0349093 -1.3536e-05 0.0
0.0642262 -4.45864e-05 0.0
0.165599 -0.000223542 0.0
0.186969 -0.000262777 0.0
0.158126 -0.000234062 0.0
0.247091 -0.000374574 0.0
0.248691 -0.00043092 0.0
0.231053 -0.000382233 0.0
0.240527 -0.000407979 0.0
0.248758 -0.00043055 0.0
0.240202 -0.000381109 0.0
0.229255 -0.000374561 0.0
0.199183 -0.000323304 0.0
0.218636 -0.000386622 0.0
0 0 0.0
0.0346489 -1.66948e-05 0.0
0.126172 -0.000173417 0.0
0.0681792 -6.0293e-05 0.0
0.0988217 -0.000117366 0.0
0.208081 -0.000338082 0.0
0.189758 -0.000294675 0.0
0.168124 -0.000244495 0.0
0.140618 -0.000176948 0.0
0.0954077 -9.34381e-05 0.0
0 0 0.0
0.0332534 -1.38627e-05 0.0
0.0660552 -5.31317e-05 0.0
0.183225 -0.000305578 0.0
0.159265 -0.000262138 0.0
0.244898 -0.000444427 0.0
0.24966 -0.000488065 0.0
0.235962 -0.000447652 0.0
0.244859 -0.000473192 0.0
0.249378 -0.000486836 0.0
0.238619 -0.000450128 0.0
0.218418 -0.00040684 0.0
0.203106 -0.000377522 0.0
0.223372 -0.000442311 0.0
0 0 0.0
0.0478063 -3.33736e-05 0.0
0.127924 -0.000197872 0.0
0.0904264 -0.000110209 0.0
0.202606 -0.000363657 0.0
0.177964 -0.000299005 0.0
0.147885 -0.000224251 0.0
0.118718 -0.000146871 0.0
0.0780255 -7.84327e-05 0.0
0 0 0.0
0.0342315 -1.63427e-05 0.0
0.187835 -0.000362091 0.0
0.160404 -0.000291846 0.0
0.246451 -0.000508197 0.0
0.25 -0.000547706 0.0
0.240141 -0.000517142 0.0
0.247578 -0.000570294 0.0
0.239858 -0.000516771 0.0
0.22729 -0.000478467 0.0
0.209726 -0.000425626 0.0
0.227726 -0.000502204 0.0
0.210292 -0.000443524 0.0
0 0 0.0
0.0478701 -3.72298e-05 0.0
0.12802 -0.000221027 0.0
0.0905092 -0.000121219 0.0
0.187167 -0.00036023 0.0
0.159615 -0.000282262 0.0
0.0471977 -3.27059e-05 0.0
0.12708 -0.000195136 0.0
0.0895866 -0.000107851 0.0
0 0 0.0
0.187911 -0.000407131 0.0
0.160495 -0.000326808 0.0
0.247419 -0.000576857 0.0
0.249999 -0.000617395 0.0
0.240174 -0.00058329 0.0
0.247595 -0.000641397 0.0
0.227243 -0.000539013 0.0
0.239825 -0.000582216 0.0
0.18709 -0.000404917 0.0
0.209663 -0.000479152 0.0
0.227767 -0.000551529 0.0
0.210358 -0.000498769 0.0
0 0 0.0
0.0479403 -4.08368e-05 0.0
0.128127 -0.000245851 0.0
0.0906217 -0.000135986 0.0
0.126984 -0.000218774 0.0
0.159527 -0.000316873 0.0
0.0471382 -3.6271e-05 0.0
0.089496 -0.000119908 0.0
0 0 0.0
0.187999 -0.000454854 0.0
0.160598 -0.000364453 0.0
0.247402 -0.000647754 0.0
0.249999 -0.000691959 0.0
0.227812 -0.000605199 0.0
0.240226 -0.000682527 0.0
0.247614 -0.000718087 0.0
0.227197 -0.000590357 0.0
0.239788 -0.000652482 0.0
0.187025 -0.000439284 0.0
0.209591 -0.000536274 0.0
0.210432 -0.000557749 0.0
0 0 0.0
0.0480226 -4.54187e-05 0.0
0.128266 -0.000276641 0.0
0.0907363 -0.00015024 0.0
0.126894 -0.00023904 0.0
0.159427 -0.000352976 0.0
0.0470659 -4.02849e-05 0.0
0.0893957 -0.000132392 0.0
0 0 0.0
0.160713 -0.000404406 0.0
0.188123 -0.000518778 0.0
0.247381 -0.000723753 0.0
0.249999 -0.000772004 0.0
0.24026 -0.000745481 0.0
0.227897 -0.00070024 0.0
0.247636 -0.000799428 0.0
0.239746 -0.000727357 0.0
0.227148 -0.000646364 0.0
0.186931 -0.000488803 0.0
0.209511 -0.000597004 0.0
0.210515 -0.000621512 0.0
0 0 0.0
0.0481055 -5.01113e-05 0.0
0.128382 -0.000301702 0.0
0.0908627 -0.000165796 0.0
0.126778 -0.000264579 0.0
0.159315 -0.000391974 0.0
0 0 0.0
0.0892837 -0.000146422 0.0
0.046993 -4.42592e-05 0.0
0.188235 -0.000577146 0.0
0.160841 -0.000448359 0.0
0.227955 -0.000763648 0.0
0.247359 -0.000806162 0.0
0.249998 -0.000858726 0.0
0.247654 -0.000868041 0.0
0.240298 -0.000811307 0.0
0.2397 -0.000808507 0.0
0.227082 -0.000718926 0.0
0.186797 -0.000555593 0.0
0.209421 -0.000663409 0.0
0.210608 -0.000689648 0.0
0 0 0.0
0.0481998 -5.52558e-05 0.0
0.0909882 -0.000180709 0.0
0.128529 -0.000332906 0.0
0.126627 -0.000296366 0.0
0.15919 -0.000433852 0.0
0 0 0.0
0.0469057 -4.86615e-05 0.0
0.0891739 -0.000159339 0.0
0.188329 -0.000622587 0.0
0.160984 -0.000496131 0.0
0.228018 -0.000831744 0.0
0.240371 -0.000937469 0.0
0.247333 -0.000895533 0.0
0.249997 -0.000952184 0.0
0.247675 -0.000940257 0.0
0.239647 -0.000896341 0.0
0.227007 -0.000797657 0.0
0.186706 -0.000599721 0.0
0.20932 -0.000734184 0.0
0.210713 -0.000764325 0.0
0 0 0.0
0.0483049 -6.06853e-05 0.0
0.12872 -0.000373669 0.0
0.0911578 -0.000201922 0.0
0.126503 -0.000322081 0.0
0.159052 -0.000479167 0.0
0.0468184 -5.28244e-05 0.0
0 0 0.0
0.089026 -0.000176737 0.0
0.161142 -0.000548193 0.0
0.188499 -0.000704924 0.0
0.228136 -0.000953308 0.0
0.240431 -0.00103926 0.0
0.247702 -0.00104191 0.0
0.247291 -0.00103629 0.0
0.249996 -0.0010556 0.0
0.239588 -0.000993926 0.0
0.226894 -0.000912719 0.0
0.18654 -0.000678317 0.0
0.209208 -0.000812477 0.0
0.210827 -0.000845101 0.0
0 0 0.0
0.0484194 -6.66283e-05 0.0
0.0913278 -0.000221592 0.0
0.161317 -0.000603455 0.0
0.128876 -0.000405332 0.0
0.126344 -0.000354473 0.0
0.15893 -0.000518128 0.0
0.0467171 -5.82707e-05 0.0
0 0 0.0
0.0888908 -0.000192598 0.0
0.210935 -0.000920038 0.0
0.188615 -0.000760875 0.0
0.240483 -0.0011252 0.0
0.228233 -0.0010563 0.0
0.24775 -0.00120278 0.0
0.249995 -0.0011668 0.0
0.247265 -0.00112016 0.0
0.239523 -0.00109822 0.0
0.226815 -0.000990698 0.0
0.186428 -0.000730187 0.0
0.158728 -0.000582388 0.0
0.209084 -0.000896306 0.0
0 0 0.0
0.0914982 -0.000242428 0.0
0.0485543 -7.4162e-05 0.0
0.161471 -0.000654168 0.0
0.129108 -0.000454965 0.0
0.126167 -0.000390228 0.0
0 0 0.0
0.0466062 -6.39259e-05 0.0
0.0887107 -0.00021348 0.0
0.211053 -0.000999545 0.0
0.188824 -0.000862456 0.0
0.24054 -0.00121769 0.0
0.228342 -0.00116761 0.0
0.247776 -0.00130168 0.0
0.249993 -0.00128951 0.0
0.247237 -0.00121233 0.0
0.158578 -0.000626755 0.0
0.208967 -0.000973624 0.0
0.23945 -0.0012112 0.0
0.226729 -0.00107559 0.0
0.186266 -0.000805305 0.0
0 0 0.0
0.0486872 -8.09863e-05 0.0
0.0917019 -0.000266686 0.0
0.161681 -0.000720731 0.0
0.129334 -0.000501962 0.0
0.0885286 -0.000233644 0.0
0.125942 -0.000435017 0.0
0 0 0.0
0.0464787 -7.05098e-05 0.0
0.211204 -0.00110321 0.0
0.189015 -0.000952562 0.0
0.240617 -0.00134434 0.0
0.228462 -0.00128994 0.0
0.247807 -0.00140743 0.0
0.249993 -0.00142491 0.0
0.247178 -0.00139606 0.0
0.158376 -0.000689146 0.0
0.23937 -0.00133727 0.0
0.208841 -0.00105486 0.0
0.226574 -0.0012287 0.0
0.186039 -0.000911237 0.0
0 0 0.0
0.0919522 -0.000296996 0.0
0.0488411 -8.92003e-05 0.0
0.161961 -0.00080983 0.0
0.129582 -0.000553657 0.0
0.0883502 -0.000254154 0.0
0.125725 -0.000479091 0.0
0 0 0.0
0.0463441 -7.74678e-05 0.0
0.189224 -0.00105265 0.0
0.211373 -0.00121829 0.0
0.240704 -0.00148571 0.0
0.247849 -0.00155106 0.0
0.228594 -0.00142379 0.0
0.24999 -0.00156999 0.0
0.247133 -0.00154336 0.0
0.239281 -0.00147274 0.0
0.24956 -0.00168311 0.0
0.158151 -0.000757581 0.0
0.226443 -0.00135539 0.0
0.208624 -0.00119605 0.0
0.185888 -0.000979336 0.0
0 0 0.0
0.0921813 -0.000324819 0.0
0.0490217 -9.94492e-05 0.0
0.16217 -0.000877128 0.0
0.129857 -0.000610695 0.0
0.0881337 -0.00027882 0.0
0.125522 -0.000519361 0.0
0 0 0.0
0.0462051 -8.4686e-05 0.0
0.189456 -0.00116195 0.0
0.211558 -0.00134534 0.0
0.240794 -0.00163798 0.0
0.228741 -0.00157362 0.0
0.247916 -0.00179047 0.0
0.249164 -0.00168274 0.0
0.243771 -0.00163302 0.0
0.233388 -0.00153376 0.0
0.249985 -0.00182088 0.0
0.157904 -0.000832724 0.0
0.21802 -0.00138889 0.0
0.203213 -0.001256 0.0
0.185612 -0.00110219 0.0
0 0 0.0
0.0924559 -0.000358278 0.0
0.0492092 -0.000109093 0.0
0.162453 -0.000968728 0.0
0.13016 -0.000674579 0.0
0.125222 -0.000578855 0.0
0.087895 -0.000306402 0.0
0 0 0.0
0.0460373 -9.26944e-05 0.0
0.189712 -0.00128374 0.0
0.211763 -0.00148589 0.0
0.247964 -0.00197348 0.0
0.228901 -0.0017375 0.0
0.240901 -0.00180917 0.0
0.24705 -0.00179771 0.0
0.239118 -0.00172056 0.0
0.226196 -0.00159074 0.0
0.249976 -0.00200775 0.0
0.15763 -0.000916647 0.0
0.208295 -0.00140909 0.0
0.185362 -0.00121344 0.0
0 0 0.0
0.0494068 -0.000119621 0.0
0.0927602 -0.000396268 0.0
0.130444 -0.00073378 0.0
0.189994 -0.0014166 0.0
0.162768 -0.00107028 0.0
0.124931 -0.000636173 0.0
0.0876323 -0.000336948 0.0
0.0458592 -0.000101862 0.0
0 0 0.0
0.229047 -0.00188698 0.0
0.21199 -0.00164357 0.0
0.248009 -0.00213198 0.0
0.241013 -0.00200024 0.0
0.226024 -0.00175053 0.0
0.246985 -0.00198067 0.0
0.238996 -0.00189496 0.0
0.249971 -0.00221373 0.0
0.185091 -0.0013334 0.0
0.157268 -0.00102502 0.0
0.208001 -0.00159502 0.0
0 0 0.0
0.049636 -0.000132768 0.0
0.0931334 -0.000442442 0.0
0.130808 -0.000810005 0.0
0.190225 -0.00153096 0.0
0.163187 -0.0012121 0.0
0.124614 -0.000698236 0.0
0.0873155 -0.000373753 0.0
0.0456657 -0.00011151 0.0
0 0 0.0
0.124262 -0.000768671 0.0
0.229203 -0.00204381 0.0
0.212319 -0.00187756 0.0
0.241189 -0.00230211 0.0
0.248055 -0.00229964 0.0
0.225765 -0.00199052 0.0
0.238867 -0.0020848 0.0
0.246916 -0.00218402 0.0
0.249959 -0.00244091 0.0
0.184792 -0.00146531 0.0
0.15693 -0.00113004 0.0
0.20775 -0.00175753 0.0
0 0 0.0
0.049889 -0.000146637 0.0
0.0935116 -0.000490195 0.0
0.131213 -0.00089744 0.0
0.190564 -0.00169217 0.0
0.163583 -0.00134441 0.0
0.0454487 -0.000123808 0.0
0.0869926 -0.000412188 0.0
0 0 0.0
0.123939 -0.000831274 0.0
0.229411 -0.00226412 0.0
0.212605 -0.00208036 0.0
0.241329 -0.00254392 0.0
0.248114 -0.00254171 0.0
0.225583 -0.00215516 0.0
0.238724 -0.00229352 0.0
0.249947 -0.0026931 0.0
0.246798 -0.0025138 0.0
0.184546 -0.00156976 0.0
0.15656 -0.00124205 0.0
0.207472 -0.00193016 0.0
0 0 0.0
0.050167 -0.000161835 0.0
0.0939281 -0.00054235 0.0
0.131731 -0.00100927 0.0
0.191032 -0.00192336 0.0
0.212917 -0.00230879 0.0
0.164017 -0.0014943 0.0
0.0452266 -0.000135509 0.0
0.0866418 -0.000453055 0.0
0 0 0.0
0.123524 -0.000913082 0.0
0.229719 -0.00259275 0.0
0.241449 -0.00276171 0.0
0.24818 -0.00280868 0.0
0.249931 -0.00290173 0.0
0.225392 -0.00232785 0.0
0.238556 -0.002527 0.0
0.246703 -0.00276903 0.0
0.156154 -0.00136515 0.0
0.184193 -0.00172355 0.0
0.207165 -0.00211872 0.0
0 0 0.0
0.0504965 -0.000181327 0.0
0.0943957 -0.000605004 0.0
0.13224 -0.00112577 0.0
0.19135 -0.0020849 0.0
0.213259 -0.00255981 0.0
0.164501 -0.0016632 0.0
0.0449681 -0.000148648 0.0
0.0862553 -0.000497933 0.0
0 0 0.0
0.155803 -0.00146379 0.0
0.0858334 -0.000544475 0.0
0.122999 -0.00101414 0.0
0.229976 -0.00288779 0.0
0.241574 -0.00298764 0.0
0.248276 -0.00324637 0.0
0.249917 -0.00312058 0.0
0.246621 -0.00298633 0.0
0.225134 -0.00255456 0.0
0.238299 -0.00288762 0.0
0.1837 -0.00193077 0.0
0.20688 -0.00229727 0.0
0.230207 -0.00314115 0.0
0 0 0.0
0.0508453 -0.00020242 0.0
0.132807 -0.00125955 0.0
0.0949162 -0.000678084 0.0
0.21364 -0.00285198 0.0
0.191923 -0.00238375 0.0
0.165038 -0.0018557 0.0
0.0446719 -0.000163442 0.0
0 0 0.0
0.183373 -0.00206996 0.0
0.155325 -0.00160297 0.0
0.122491 -0.001112 0.0
0.0443561 -0.000180685 0.0
0.0853681 -0.000597515 0.0
0.241747 -0.00331155 0.0
0.248329 -0.00351241 0.0
0.249883 -0.00344322 0.0
0.249855 -0.00371106 0.0
0.246525 -0.00321658 0.0
0.224843 -0.00280554 0.0
0.238076 -0.00317534 0.0
0.206568 -0.00247688 0.0
0.230443 -0.00342343 0.0
0.0512191 -0.000227243 0.0
0 0 0.0
0.133339 -0.00138646 0.0
0.0954959 -0.000760503 0.0
0.214052 -0.00317846 0.0
0.192309 -0.00259252 0.0
0.165635 -0.00207879 0.0
0 0 0.0
0.182905 -0.00225635 0.0
0.154693 -0.00177711 0.0
0.122029 -0.00119169 0.0
0.0440335 -0.000196597 0.0
0.0848637 -0.000651871 0.0
0.241997 -0.00383026 0.0
0.248384 -0.00379206 0.0
0.249815 -0.00399236 0.0
0.246325 -0.0036875 0.0
0.224525 -0.00307232 0.0
0.237838 -0.00348666 0.0
0.20604 -0.00278485 0.0
0.230767 -0.00381329 0.0
0 0 0.0
0.0516567 -0.000258076 0.0
0.134032 -0.00156188 0.0
0.0960863 -0.000850159 0.0
0.166297 -0.00233153 0.0
0.214505 -0.00355375 0.0
0.193011 -0.00298101 0.0
0 0 0.0
0 0 0.0
0.182386 -0.00246014 0.0
0.15411 -0.00193575 0.0
0.121437 -0.00129638 0.0
0.0843159 -0.000708298 0.0
0.0436631 -0.000213199 0.0
0.24219 -0.0042524 0.0
0.248443 -0.0041983 0.0
0.237618 -0.00375424 0.0
0.249752 -0.00440167 0.0
0.24615 -0.0040616 0.0
0.224165 -0.00336582 0.0
0.205578 -0.0030374 0.0
0.242345 -0.00463108 0.0
0.231096 -0.00425183 0.0
0.0521479 -0.000291072 0.0
0.0968112 -0.000959222 0.0
0.134813 -0.0017712 0.0
0.166883 -0.00257185 0.0
0.215001 -0.00397565 0.0
0.193477 -0.00326428 0.0
0 0 0.0
0 0 0.0
0.153609 -0.00205672 0.0
0.18167 -0.00272112 0.0
0.083783 -0.000757047 0.0
0.120696 -0.00141701 0.0
0.0432594 -0.000232259 0.0
0.248527 -0.00484909 0.0
0.249659 -0.00485836 0.0
0.205072 -0.00330547 0.0
0.237374 -0.00403318 0.0
0.245999 -0.00437532 0.0
0.223613 -0.00378898 0.0
0.242509 -0.00502775 0.0
0.231597 -0.00493377 0.0
0.215531 -0.0044612 0.0
0.0527443 -0.000334411 0.0
0.0976383 -0.00109901 0.0
0.135827 -0.0020564 0.0
0.167689 -0.00290363 0.0
0.194327 -0.00379204 0.0
0 0 0.0
0 0 0.0
0.152789 -0.00224918 0.0
0.181029 -0.00294869 0.0
0.0830858 -0.000819318 0.0
0.119995 -0.00152145 0.0
0.0428076 -0.000249694 0.0
0.245824 -0.00470914 0.0
0.249544 -0.00534922 0.0
0.248555 -0.005377 0.0
0.20451 -0.00358679 0.0
0.237037 -0.00441626 0.0
0.223142 -0.0041405 0.0
0.180326 -0.0031792 0.0
0.242778 -0.00582791 0.0
0 0 0.0
0.231966 -0.00553228 0.0
0.195085 -0.00429723 0.0
0.216098 -0.00500939 0.0
0.0533736 -0.000386679 0.0
0.136681 -0.00231634 0.0
0.0986902 -0.00129342 0.0
0.168767 -0.0034037 0.0
0 0 0.0
0 0 0.0
0 0 0.0
0 0 0.0
0 0 0.0
0.0423686 -0.000264282 0.0
0.119236 -0.00162815 0.0
0.152035 -0.00241629 0.0
0.0824719 -0.000870222 0.0
0.24556 -0.00516023 0.0
0.249386 -0.0058927 0.0
0.248572 -0.00595767 0.0
0.222708 -0.00442773 0.0
0.20388 -0.00388222 0.0
0.236468 -0.00499337 0.0
0.203295 -0.00414042 0.0
0.17975 -0.00334996 0.0
0.242951 -0.00649518 0.0
0.232358 -0.00618801 0.0
0 0 0.0
9.09613e-05 -4.12972e-05 0.0
0 0 0.0
-0.000237152 0.00106214 0.0
0.21671 -0.00564665 0.0
0.195703 -0.0047227 0.0
0.0541717 -0.000457972 0.0
0.137798 -0.00266826 0.0
0.0997958 -0.00151114 0.0
0.169791 -0.00390518 0.0
0 0 0.0
0 0 0.0
0 0 0.0
-0.00016352 0.000461018 0.0
1.27042e-05 -0.000166177 0.0
0.000101784 -0.000118284 0.0
0 0 0.0
0.0418734 -0.000281811 0.0
0.118553 -0.00171223 0.0
0.151217 -0.00257883 0.0
0.0816784 -0.000928454 0.0
0.245253 -0.00566096 0.0
0.249181 -0.00648423 0.0
0.248553 -0.00659196 0.0
0.22223 -0.00473669 0.0
0.236095 -0.0053618 0.0
0.20265 -0.00439919 0.0
0.178705 -0.00363834 0.0
0.243114 -0.00722711 0.0
0.235788 -0.00697366 0.0
0.225608 -0.00657259 0.0
0 0 0.0
0.000182109 -2.87642e-05 0.0
0 0 0.0
0 0 0.0
-0.000873249 0.00268757 0.0
-0.000777848 0.0015897 0.0
0.21255 -0.00606196 0.0
0.196572 -0.00537665 0.0
0.100944 -0.00175224 0.0
0.0550303 -0.000549279 0.0
0.139061 -0.00310463 0.0
0.170908 -0.0044975 0.0
0 0 0.0
-0.000204646 8.20747e-05 0.0
-0.000478081 0.000659741 0.0
-5.89407e-05 -6.21637e-05 0.0
4.64411e-05 1.95143e-05 0.0
0 0 0.0
0.0413515 -0.000298036 0.0
0.117699 -0.00180848 0.0
0.150338 -0.00273109 0.0
0.0809078 -0.000979089 0.0
0.24488 -0.00619512 0.0
0.248924 -0.00712472 0.0
0.248491 -0.00728867 0.0
0.221339 -0.00527397 0.0
0.235669 -0.00573442 0.0
0.20181 -0.00472081 0.0
0.149384 -0.00289222 0.0
0.177771 -0.00387761 0.0
0.243219 -0.00786193 0.0
0.232996 -0.00747619 0.0
0.217805 -0.00696206 0.0
0 0 0.0
0.000126775 4.58642e-05 0.0
0 0 0.0
0 0 0.0
0 0 0.0
0 0 0.0
-0.00134229 0.00172941 0.0
-0.000268354 0.00246566 0.0
-0.000936593 0.00368026 0.0
-0.00213261 0.00493773 0.0
-0.00169675 0.00316239 0.0
0 0 0.0
-9.72045e-05 0.00430947 0.0
0.197734 -0.00636842 0.0
0.171881 -0.00507338 0.0
0 0 0.0
0.0561592 -0.000681817 0.0
0.102411 -0.00209717 0.0
0.140719 -0.0037737 0.0
0 0 0.0
0 0 0.0
-0.000702422 0.000681985 0.0
-0.000423365 0.000343596 0.0