# vtk DataFile Version 3.0
Mesh NS-CD Problem
ASCII
DATASET UNSTRUCTURED_GRID
POINTS 10839 float
-2 0.3 0.0
-2 0.4 0.0
-2 0.35 0.0
-2 0.45 0.0
-2 0.5 0.0
-2 0.55 0.0
-2 0 0.0
-2 0.05 0.0
-2 0.85 0.0
-2 0.9 0.0
-2 0.1 0.0
-2 0.15 0.0
-2 0.25 0.0
-2 0.2 0.0
-1.96653 0.266667 0.0
-1.96524 0.415385 0.0
-1.96485 0.315 0.0
-1.96348 0.363636 0.0
-1.96414 0.464286 0.0
-2 0.6 0.0
-1.96538 0.584615 0.0
-1.96538 0.538462 0.0
-1.94979 0 0.0
-1.96653 0.0666666 0.0
-1.93306 0.0333333 0.0
-2 0.8 0.0
-2 0.75 0.0
-2 0.7 0.0
-2 0.65 0.0
-1.96249 0.7375 0.0
-1.96666 0.833333 0.0
-2 1 0.0
-2 0.95 0.0
-1.96249 0.8875 0.0
-1.96666 0.933333 0.0
-1.96234 0.1125 0.0
-1.96653 0.166667 0.0
-1.93724 0.225 0.0
-1.92971 0.28 0.0
-1.93048 0.380769 0.0
-1.93048 0.423077 0.0
-1.89958 0.3375 0.0
-1.9292 0.484203 0.0
-1.92117 0.530907 0.0
-1.96363 0.636364 0.0
-1.93076 0.576923 0.0
-1.89958 0 0.0
-1.88703 0.0375 0.0
-1.90963 0.08 0.0
-1.86611 0.0666666 0.0
-1.93749 0.775 0.0
-1.93635 0.672727 0.0
-1.92999 0.72 0.0
-1.93332 0.866667 0.0
-1.92856 0.821429 0.0
-1.94999 1 0.0
-1.92499 0.9625 0.0
-1.92499 0.925 0.0
-1.89998 0.9 0.0
-1.89958 0.125 0.0
-1.92827 0.178571 0.0
-1.89958 0.233333 0.0
-1.89045 0.290909 0.0
-1.86096 0.311538 0.0
-1.89241 0.392857 0.0
-1.89334 0.448489 0.0
-1.85655 0.357143 0.0
-1.89614 0.653846 0.0
-1.89427 0.504121 0.0
-1.8952 0.559753 0.0
-1.89614 0.615385 0.0
-1.84937 0 0.0
-1.83264 0.0333333 0.0
-1.85655 0.107143 0.0
-1.81172 0.075 0.0
-1.89998 0.766667 0.0
-1.89089 0.709091 0.0
-1.87498 0.85 0.0
-1.85998 0.79 0.0
-1.88748 0.8125 0.0
-1.89998 1 0.0
-1.88748 0.9625 0.0
-1.86664 0.933333 0.0
-1.85712 0.892857 0.0
-1.87448 0.15 0.0
-1.86611 0.194444 0.0
-1.83264 0.133333 0.0
-1.83264 0.2625 0.0
-1.82068 0.321429 0.0
-1.85664 0.404762 0.0
-1.85674 0.452381 0.0
-1.85683 0.5 0.0
-1.81184 0.375 0.0
-1.85712 0.642857 0.0
-1.85693 0.547619 0.0
-1.85702 0.595238 0.0
-1.79917 0 0.0
-1.78482 0.0357143 0.0
-1.79917 0.116667 0.0
-1.76569 0.0666666 0.0
-1.85452 0.745455 0.0
-1.82689 0.692308 0.0
-1.81815 0.781818 0.0
-1.82497 0.825 0.0
-1.84997 1 0.0
-1.8333 0.958333 0.0
-1.81247 0.8875 0.0
-1.81247 0.925 0.0
-1.81742 0.218182 0.0
-1.82427 0.175 0.0
-1.77634 0.145455 0.0
-1.79144 0.242308 0.0
-1.78482 0.285714 0.0
-1.77469 0.332653 0.0
-1.81215 0.529762 0.0
-1.81194 0.422619 0.0
-1.81203 0.470238 0.0
-1.76714 0.392857 0.0
-1.81234 0.625 0.0
-1.79732 0.571429 0.0
-1.74896 0 0.0
-1.73222 0.0333333 0.0
-1.75398 0.105 0.0
-1.71883 0.07 0.0
-1.79227 0.730769 0.0
-1.78007 0.679121 0.0
-1.75765 0.769231 0.0
-1.78178 0.818182 0.0
-1.78996 0.86 0.0
-1.79996 1 0.0
-1.78568 0.964286 0.0
-1.76663 0.922222 0.0
-1.76569 0.1875 0.0
-1.73222 0.15 0.0
-1.74896 0.25 0.0
-1.73714 0.304762 0.0
-1.76743 0.537202 0.0
-1.72869 0.343878 0.0
-1.76732 0.485119 0.0
-1.76723 0.440476 0.0
-1.72243 0.410714 0.0
-1.76757 0.607143 0.0
-1.69875 0 0.0
-1.68369 0.035 0.0
-1.69875 0.1125 0.0
-1.66528 0.075 0.0
-1.74341 0.708974 0.0
-1.73324 0.665934 0.0
-1.70441 0.74478 0.0
-1.71423 0.785714 0.0
-1.72303 0.826923 0.0
-1.74541 0.854545 0.0
-1.74541 0.890909 0.0
-1.74996 1 0.0
-1.73745 0.9625 0.0
-1.71359 0.927273 0.0
-1.68716 0.153846 0.0
-1.7131 0.214286 0.0
-1.70725 0.275 0.0
-1.69712 0.321939 0.0
-1.72279 0.589286 0.0
-1.72261 0.5 0.0
-1.7227 0.544643 0.0
-1.6827 0.355102 0.0
-1.67773 0.428571 0.0
-1.70763 0.464286 0.0
-1.70369 0.62449 0.0
-1.64854 0 0.0
-1.63181 0.0375 0.0
-1.64137 0.142857 0.0
-1.61764 0.0769231 0.0
-1.69458 0.703846 0.0
-1.67471 0.657437 0.0
-1.66143 0.727637 0.0
-1.67125 0.768571 0.0
-1.67851 0.821429 0.0
-1.68841 0.861538 0.0
-1.70904 0.890909 0.0
-1.69995 1 0.0
-1.68176 0.963636 0.0
-1.67267 0.927273 0.0
-1.65427 0.187143 0.0
-1.66718 0.231429 0.0
-1.66554 0.3 0.0
-1.67802 0.571429 0.0
-1.67792 0.523809 0.0
-1.6367 0.366327 0.0
-1.63682 0.423469 0.0
-1.62568 0.502976 0.0
-1.6629 0.470238 0.0
-1.65254 0.618367 0.0
-1.6059 0.307143 0.0
-1.59833 0 0.0
-1.58288 0.0384615 0.0
-1.60563 0.169643 0.0
-1.58179 0.112271 0.0
-1.56964 0.0714286 0.0
-1.64574 0.690385 0.0
-1.62827 0.751429 0.0
-1.63371 0.791071 0.0
-1.64279 0.857143 0.0
-1.65378 0.896154 0.0
-1.64994 1 0.0
-1.6363 0.963636 0.0
-1.61916 0.930769 0.0
-1.61345 0.209107 0.0
-1.62126 0.248571 0.0
-1.56989 0.196429 0.0
-1.63324 0.553571 0.0
-1.58846 0.535714 0.0
-1.59408 0.361905 0.0
-1.59161 0.402211 0.0
-1.58832 0.464286 0.0
-1.61504 0.598581 0.0
-1.59683 0.64359 0.0
-1.57899 0.274107 0.0
-1.56176 0.322381 0.0
-1.54812 0 0.0
-1.53378 0.0357143 0.0
-1.54593 0.147619 0.0
-1.53385 0.0732143 0.0
-1.53393 0.110714 0.0
-1.58522 0.704286 0.0
-1.58709 0.745 0.0
-1.58896 0.785714 0.0
-1.60695 0.830357 0.0
-1.60707 0.892857 0.0
-1.59993 1 0.0
-1.58454 0.965385 0.0
-1.57135 0.928571 0.0
-1.55209 0.241071 0.0
-1.5291 0.198214 0.0
-1.56936 0.570918 0.0
-1.54369 0.517857 0.0
-1.5464 0.380952 0.0
-1.54564 0.427721 0.0
-1.54488 0.47449 0.0
-1.55026 0.606122 0.0
-1.54222 0.677143 0.0
-1.52943 0.282857 0.0
-1.52143 0.33619 0.0
-1.49792 0 0.0
-1.49802 0.05 0.0
-1.49822 0.15 0.0
-1.49312 0.1 0.0
-1.5423 0.717143 0.0
-1.54419 0.767857 0.0
-1.54727 0.819048 0.0
-1.57122 0.861905 0.0
-1.53553 0.914286 0.0
-1.54992 1 0.0
-1.53563 0.964286 0.0
-1.49842 0.25 0.0
-1.48831 0.2 0.0
-1.5214 0.558929 0.0
-1.49891 0.5 0.0
-1.49871 0.4 0.0
-1.47631 0.45 0.0
-1.49911 0.6 0.0
-1.49921 0.65 0.0
-1.49931 0.7 0.0
-1.48111 0.35 0.0
-1.48351 0.3 0.0
-1.44771 0 0.0
-1.44782 0.05 0.0
-1.44804 0.15 0.0
-1.44793 0.1 0.0
-1.49941 0.75 0.0
-1.49951 0.8 0.0
-1.49981 0.95 0.0
-1.49961 0.85 0.0
-1.49971 0.9 0.0
-1.49991 1 0.0
-1.44826 0.25 0.0
-1.43815 0.2 0.0
-1.47151 0.55 0.0
-1.44881 0.5 0.0
-1.44859 0.4 0.0
-1.42619 0.45 0.0
-1.44913 0.65 0.0
-1.44902 0.6 0.0
-1.44935 0.75 0.0
-1.44924 0.7 0.0
-1.43972 0.35 0.0
-1.43336 0.3 0.0
-1.3975 0 0.0
-1.39762 0.05 0.0
-1.39786 0.15 0.0
-1.39274 0.1 0.0
-1.44957 0.85 0.0
-1.44946 0.8 0.0
-1.4523 0.95 0.0
-1.44968 0.9 0.0
-1.4499 1 0.0
-1.3981 0.25 0.0
-1.38798 0.2 0.0
-1.42141 0.55 0.0
-1.3987 0.5 0.0
-1.39834 0.35 0.0
-1.37845 0.4 0.0
-1.37607 0.45 0.0
-1.40784 0.65 0.0
-1.39894 0.6 0.0
-1.41185 0.75 0.0
-1.39918 0.7 0.0
-1.38322 0.3 0.0
-1.34729 0 0.0
-1.34492 0.05 0.0
-1.34018 0.15 0.0
-1.34255 0.1 0.0
-1.40707 0.85 0.0
-1.39941 0.8 0.0
-1.39977 0.95 0.0
-1.39965 0.9 0.0
-1.39989 1 0.0
-1.33781 0.2 0.0
-1.33544 0.25 0.0
-1.37131 0.55 0.0
-1.34859 0.5 0.0
-1.33833 0.4 0.0
-1.3307 0.35 0.0
-1.32595 0.45 0.0
-1.34885 0.6 0.0
-1.36655 0.65 0.0
-1.36179 0.75 0.0
-1.34911 0.7 0.0
-1.33307 0.3 0.0
-1.29708 0 0.0
-1.29722 0.05 0.0
-1.2975 0.15 0.0
-1.29236 0.1 0.0
-1.35703 0.85 0.0
-1.34937 0.8 0.0
-1.34988 1 0.0
-1.34962 0.9 0.0
-1.35226 0.95 0.0
-1.28528 0.25 0.0
-1.28764 0.2 0.0
-1.28931 0.35 0.0
-1.32121 0.55 0.0
-1.29848 0.5 0.0
-1.28709 0.45 0.0
-1.2982 0.4 0.0
-1.29876 0.6 0.0
-1.31647 0.65 0.0
-1.29918 0.75 0.0
-1.29904 0.7 0.0
-1.28292 0.3 0.0
-1.24687 0 0.0
-1.24702 0.05 0.0
-1.24717 0.1 0.0
-1.24732 0.15 0.0
-1.29946 0.85 0.0
-1.29932 0.8 0.0
-1.29987 1 0.0
-1.29974 0.95 0.0
-1.30462 0.9 0.0
-1.24762 0.25 0.0
-1.23747 0.2 0.0
-1.24792 0.35 0.0
-1.22807 0.4 0.0
-1.27111 0.55 0.0
-1.24837 0.5 0.0
-1.24822 0.45 0.0
-1.24867 0.6 0.0
-1.26639 0.65 0.0
-1.26167 0.75 0.0
-1.24897 0.7 0.0
-1.23277 0.3 0.0
-1.19667 0 0.0
-1.19683 0.05 0.0
-1.18964 0.15 0.0
-1.19198 0.1 0.0
-1.25695 0.85 0.0
-1.24927 0.8 0.0
-1.25223 0.95 0.0
-1.24987 1 0.0
-1.24957 0.9 0.0
-1.1873 0.2 0.0
-1.18496 0.25 0.0
-1.18028 0.35 0.0
-1.17794 0.4 0.0
-1.1981 0.45 0.0
-1.19842 0.55 0.0
-1.19826 0.5 0.0
-1.19858 0.6 0.0
-1.19874 0.65 0.0
-1.19906 0.75 0.0
-1.1989 0.7 0.0
-1.18262 0.3 0.0
-1.14646 0 0.0
-1.14663 0.05 0.0
-1.1418 0.1 0.0
-1.13713 0.2 0.0
-1.14697 0.15 0.0
-1.20691 0.85 0.0
-1.20926 0.8 0.0
-1.20221 0.95 0.0
-1.19986 1 0.0
-1.20456 0.9 0.0
-1.13997 0.3 0.0
-1.14731 0.25 0.0
-1.13781 0.4 0.0
-1.13014 0.35 0.0
-1.12548 0.45 0.0
-1.14815 0.5 0.0
-1.15962 0.55 0.0
-1.14849 0.6 0.0
-1.15745 0.65 0.0
-1.16155 0.75 0.0
-1.14917 0.8 0.0
-1.14883 0.7 0.0
-1.09625 0 0.0
-1.09661 0.1 0.0
-1.09393 0.05 0.0
-1.09697 0.2 0.0
-1.08929 0.15 0.0
-1.15687 0.85 0.0
-1.14985 1 0.0
-1.15219 0.95 0.0
-1.14951 0.9 0.0
-1.09733 0.3 0.0
-1.08465 0.25 0.0
-1.09769 0.4 0.0
-1.08 0.35 0.0
-1.08661 0.45 0.0
-1.09804 0.5 0.0
-1.12082 0.55 0.0
-1.10916 0.8 0.0
-1.10629 0.7 0.0
-1.0984 0.6 0.0
-1.11616 0.65 0.0
-1.11149 0.75 0.0
-1.04604 0 0.0
-1.04623 0.05 0.0
-1.04642 0.1 0.0
-1.0468 0.2 0.0
-1.03911 0.15 0.0
-1.09948 0.9 0.0
-1.0993 0.85 0.0
-1.09984 1 0.0
-1.09966 0.95 0.0
-1.04718 0.3 0.0
-1.03449 0.25 0.0
-1.04756 0.4 0.0
-1.02986 0.35 0.0
-1.04775 0.45 0.0
-1.04794 0.5 0.0
-1.04813 0.55 0.0
-1.05911 0.8 0.0
-1.04831 0.6 0.0
-1.06376 0.7 0.0
-1.0485 0.65 0.0
-1.04888 0.75 0.0
-0.995833 0 0.0
-0.991231 0.1 0.0
-0.996033 0.05 0.0
-0.986629 0.2 0.0
-0.98893 0.15 0.0
-1.05447 0.9 0.0
-1.04926 0.85 0.0
-1.04983 1 0.0
-1.04964 0.95 0.0
-0.984328 0.25 0.0
-0.99703 0.3 0.0
-0.997429 0.4 0.0
-0.997628 0.45 0.0
-0.979726 0.35 0.0
-0.997827 0.5 0.0
-0.998027 0.55 0.0
-0.998226 0.6 0.0
-0.961416 0.475 0.0
-1.00907 0.8 0.0
-0.998426 0.65 0.0
-0.998625 0.7 0.0
-1.01138 0.75 0.0
-0.945625 0 0.0
-0.946044 0.1 0.0
-0.943334 0.05 0.0
-0.946463 0.2 0.0
-0.938752 0.15 0.0
-1.00444 0.9 0.0
-1.00675 0.85 0.0
-0.999821 1 0.0
-1.00213 0.95 0.0
-0.93417 0.25 0.0
-0.946881 0.3 0.0
-0.9473 0.4 0.0
-0.929588 0.35 0.0
-0.925005 0.45 0.0
-0.960371 0.525 0.0
-0.959325 0.575 0.0
-0.958279 0.625 0.0
-0.922714 0.5 0.0
-0.959017 0.8 0.0
-0.957233 0.675 0.0
-0.952999 0.7125 0.0
-0.948766 0.75 0.0
-0.895417 0 0.0
-0.895855 0.1 0.0
-0.893136 0.05 0.0
-0.896294 0.2 0.0
-0.888573 0.15 0.0
-0.949184 0.85 0.0
-0.954415 0.9 0.0
-0.949812 1 0.0
-0.949603 0.95 0.0
-0.884011 0.25 0.0
-0.896733 0.3 0.0
-0.874887 0.45 0.0
-0.879449 0.35 0.0
-0.897171 0.4 0.0
-0.920423 0.55 0.0
-0.918132 0.6 0.0
-0.915841 0.65 0.0
-0.872606 0.5 0.0
-0.908968 0.8 0.0
-0.91355 0.7 0.0
-0.898707 0.75 0.0
-0.845208 0 0.0
-0.845438 0.05 0.0
-0.845667 0.1 0.0
-0.845896 0.15 0.0
-0.833853 0.25 0.0
-0.846126 0.2 0.0
-0.899146 0.85 0.0
-0.904386 0.9 0.0
-0.899584 0.95 0.0
-0.899804 1 0.0
-0.838062 0.35 0.0
[...]
POINT_DATA 10839
VECTORS Velocity float
0.21 0 0.0
0.24 0 0.0
0.2275 0 0.0
0.2475 0 0.0
0.25 0 0.0
0.2475 0 0.0
0 0 0.0
0.0475 0 0.0
0.1275 0 0.0
0.09 0 0.0
0.09 0 0.0
0.1275 0 0.0
0.1875 0 0.0
0.16 0 0.0
0.195557 -2.20396e-05 0.0
0.242841 -2.97574e-05 0.0
0.215776 -2.6139e-05 0.0
0.231406 -2.9369e-05 0.0
0.248725 -3.15736e-05 0.0
0.24 0 0.0
0.24284 -2.94508e-05 0.0
0.24852 -3.03216e-05 0.0
0 0 0.0
0.0622238 -3.94899e-06 0.0
0.0322267 -2.60629e-06 0.0
0.16 0 0.0
0.1875 0 0.0
0.21 0 0.0
0.2275 0 0.0
0.193592 -2.43727e-05 0.0
0.138887 -1.37199e-05 0.0
0 0 0.0
0.0475 0 0.0
0.0998417 -9.64542e-06 0.0
0.0622207 -3.99778e-06 0.0
0.099846 -1.01281e-05 0.0
0.13889 -1.39808e-05 0.0
0.174379 -3.4726e-05 0.0
0.201605 -4.73515e-05 0.0
0.235787 -5.74255e-05 0.0
0.244084 -5.99139e-05 0.0
0.223601 -7.69756e-05 0.0
0.249751 -6.23365e-05 0.0
0.249044 -6.92164e-05 0.0
0.231404 -2.9485e-05 0.0
0.244081 -5.87098e-05 0.0
0 0 0.0
0.0361071 -4.9764e-06 0.0
0.0736117 -1.38604e-05 0.0
0.062247 -1.51119e-05 0.0
0.174371 -3.37059e-05 0.0
0.220162 -4.65206e-05 0.0
0.201595 -4.66301e-05 0.0
0.115549 -2.04931e-05 0.0
0.146677 -3.14371e-05 0.0
0 0 0.0
0.0360878 -3.3959e-06 0.0
0.0693668 -1.08741e-05 0.0
0.089985 -2.12871e-05 0.0
0.10939 -2.88979e-05 0.0
0.146691 -3.12494e-05 0.0
0.178901 -5.79613e-05 0.0
0.206292 -7.54677e-05 0.0
0.214499 -0.000101322 0.0
0.238526 -8.96155e-05 0.0
0.247349 -9.29432e-05 0.0
0.229605 -0.000114016 0.0
0.226324 -7.94591e-05 0.0
0.249982 -9.30288e-05 0.0
0.246427 -9.02335e-05 0.0
0.236681 -8.48148e-05 0.0
0 0 0.0
0.0322485 -5.59158e-06 0.0
0.0956937 -3.26736e-05 0.0
0.0694246 -2.45765e-05 0.0
0.178877 -5.60248e-05 0.0
0.20627 -7.45392e-05 0.0
0.127479 -4.34284e-05 0.0
0.165876 -7.04991e-05 0.0
0.152328 -5.09083e-05 0.0
0 0 0.0
0.0360805 -4.83622e-06 0.0
0.0621981 -1.4923e-05 0.0
0.0956334 -3.29624e-05 0.0
0.127522 -4.45072e-05 0.0
0.156659 -6.44651e-05 0.0
0.115597 -5.09181e-05 0.0
0.193623 -0.000105681 0.0
0.218138 -0.000133234 0.0
0.240938 -0.000121035 0.0
0.247736 -0.000125035 0.0
0.249999 -0.0001259 0.0
0.234394 -0.000153532 0.0
0.229578 -0.000110292 0.0
0.247727 -0.000123829 0.0
0.24092 -0.00011912 0.0
0 0 0.0
0.0344834 -7.71505e-06 0.0
0.103115 -4.99111e-05 0.0
0.0622959 -2.4886e-05 0.0
0.18973 -8.78813e-05 0.0
0.212992 -0.000121867 0.0
0.17054 -9.47414e-05 0.0
0.144335 -7.07173e-05 0.0
0 0 0.0
0.0399006 -8.22779e-06 0.0
0.0997926 -4.47631e-05 0.0
0.0693265 -2.39771e-05 0.0
0.17062 -9.7478e-05 0.0
0.144417 -7.39613e-05 0.0
0.12437 -7.48013e-05 0.0
0.183644 -0.000122955 0.0
0.204126 -0.000146908 0.0
0.222033 -0.000172405 0.0
0.249108 -0.000163987 0.0
0.244024 -0.000161322 0.0
0.249118 -0.000164943 0.0
0.238546 -0.000194692 0.0
0.234355 -0.000149284 0.0
0.244883 -0.00017183 0.0
0 0 0.0
0.0322862 -8.18017e-06 0.0
0.0940649 -5.23911e-05 0.0
0.0652065 -3.14235e-05 0.0
0.196702 -0.000129964 0.0
0.217877 -0.000159165 0.0
0.177448 -0.000131225 0.0
0.148699 -9.25373e-05 0.0
0.120338 -6.53265e-05 0.0
0 0 0.0
0.0343947 -7.77973e-06 0.0
0.0716531 -3.10653e-05 0.0
0.152416 -0.000106807 0.0
0.127603 -9.26859e-05 0.0
0.18757 -0.000152251 0.0
0.211943 -0.000189226 0.0
0.248605 -0.000202141 0.0
0.225677 -0.000213729 0.0
0.24978 -0.000204983 0.0
0.24647 -0.000202688 0.0
0.242057 -0.000237654 0.0
0.238492 -0.000189374 0.0
0 0 0.0
0.0338658 -1.02458e-05 0.0
0.0999785 -6.97105e-05 0.0
0.0695287 -4.159e-05 0.0
0.206269 -0.000169952 0.0
0.222412 -0.000197799 0.0
0.18999 -0.000175214 0.0
0.16827 -0.00014241 0.0
0.143019 -0.000110097 0.0
0.124207 -8.20148e-05 0.0
0.0970966 -5.55269e-05 0.0
0 0 0.0
0.0360273 -9.80129e-06 0.0
0.0673284 -3.30884e-05 0.0
0.130319 -0.000111783 0.0
0.168471 -0.000149736 0.0
0.199462 -0.000195285 0.0
0.218368 -0.000228681 0.0
0.241994 -0.000231772 0.0
0.249996 -0.00024511 0.0
0.247988 -0.000240534 0.0
0.22907 -0.000257252 0.0
0.244928 -0.00028193 0.0
0.248735 -0.00025849 0.0
0.23445 -0.000235495 0.0
0 0 0.0
0.0362201 -1.30389e-05 0.0
0.122638 -0.00011399 0.0
0.0712068 -4.83869e-05 0.0
0.208363 -0.000205419 0.0
0.225136 -0.000243635 0.0
0.198067 -0.000211513 0.0
0.177746 -0.000176302 0.0
0.146548 -0.000131439 0.0
0.119153 -9.28685e-05 0.0
0.0970682 -6.2671e-05 0.0
0 0 0.0
0.0349484 -1.09207e-05 0.0
0.0672958 -3.71738e-05 0.0
0.152284 -0.000156312 0.0
0.178003 -0.000191448 0.0
0.210102 -0.000242033 0.0
0.244858 -0.000273633 0.0
0.249416 -0.000283842 0.0
0.23221 -0.000302917 0.0
0.244183 -0.00032129 0.0
0.249979 -0.00033532 0.0
0.249123 -0.000301371 0.0
0.235919 -0.00027886 0.0
0.212944 -0.000297637 0.0
0 0 0.0
0.0371442 -1.48041e-05 0.0
0.141087 -0.000158713 0.0
0.0999282 -9.35874e-05 0.0
0.0665709 -4.54268e-05 0.0
0.213645 -0.000246582 0.0
0.186634 -0.000214244 0.0
0.165114 -0.000175976 0.0
0.12227 -0.000110885 0.0
0.0928908 -6.8739e-05 0.0
0 0 0.0
0.0349218 -1.22571e-05 0.0
0.0642507 -4.00327e-05 0.0
0.165577 -0.000200561 0.0
0.186949 -0.000236584 0.0
0.1581 -0.000209475 0.0
0.247088 -0.000318348 0.0
0.248682 -0.000365365 0.0
0.231031 -0.000342673 0.0
0.240505 -0.000362151 0.0
0.248739 -0.000374354 0.0
0.240206 -0.000318902 0.0
0.229269 -0.000308692 0.0
0.199161 -0.000293172 0.0
0.21861 -0.000351046 0.0
0 0 0.0
0.0346263 -1.33944e-05 0.0
0.126139 -0.000150786 0.0
0.0681418 -4.88799e-05 0.0
0.0987829 -9.81058e-05 0.0
0.20811 -0.000276057 0.0
0.189795 -0.000241933 0.0
0.168166 -0.000203346 0.0
0.140657 -0.000150473 0.0
0.0954425 -8.24769e-05 0.0
0 0 0.0
0.0332685 -1.29639e-05 0.0
0.0660868 -4.9331e-05 0.0
0.1832 -0.0002774 0.0
0.159237 -0.00023514 0.0
0.244894 -0.000370122 0.0
0.249641 -0.000413763 0.0
0.235933 -0.000402757 0.0
0.24483 -0.000418336 0.0
0.249353 -0.00042171 0.0
0.238624 -0.000367633 0.0
0.218447 -0.00032574 0.0
0.203079 -0.000346908 0.0
0.22334 -0.000405648 0.0
0 0 0.0
0.0477674 -2.44681e-05 0.0
0.127888 -0.000168924 0.0
0.0903787 -8.65153e-05 0.0
0.202648 -0.000291315 0.0
0.178018 -0.00024331 0.0
0.147943 -0.000188893 0.0
0.118766 -0.000127911 0.0
0.0780684 -7.46047e-05 0.0
0 0 0.0
0.0342489 -1.64197e-05 0.0
0.187808 -0.000334688 0.0
0.160377 -0.000263431 0.0
0.246438 -0.000419637 0.0
0.249966 -0.00046626 0.0
0.2401 -0.000467434 0.0
0.24753 -0.000502735 0.0
0.239858 -0.000413756 0.0
0.227313 -0.000375583 0.0
0.209774 -0.000331544 0.0
0.227685 -0.000466602 0.0
0.210259 -0.000415574 0.0
0 0 0.0
0.0478119 -2.31953e-05 0.0
0.127985 -0.00018476 0.0
0.0904508 -8.836e-05 0.0
0.187234 -0.000284467 0.0
0.159694 -0.000231885 0.0
0.047223 -3.47534e-05 0.0
0.127158 -0.00017179 0.0
0.0896445 -0.000104634 0.0
0 0 0.0
0.187886 -0.000385978 0.0
0.160475 -0.000299497 0.0
0.247393 -0.000472069 0.0
0.249947 -0.000524133 0.0
0.240116 -0.000536373 0.0
0.247523 -0.000571349 0.0
0.22727 -0.000407602 0.0
0.239819 -0.000453584 0.0
0.187184 -0.000308152 0.0
0.209725 -0.000358021 0.0
0.227716 -0.000523787 0.0
0.210321 -0.000482833 0.0
0 0 0.0
0.0478548 -2.08519e-05 0.0
0.128102 -0.000204394 0.0
0.0905492 -9.0776e-05 0.0
0.127093 -0.000196752 0.0
0.159639 -0.000255691 0.0
0.0471594 -4.28382e-05 0.0
0.0895678 -0.000123973 0.0
0 0 0.0
0.187981 -0.000448979 0.0
0.160594 -0.00034522 0.0
0.247356 -0.000520731 0.0
0.249918 -0.000585589 0.0
0.227747 -0.000591648 0.0
0.240131 -0.000651331 0.0
0.247507 -0.000648894 0.0
0.227226 -0.000429113 0.0
0.239769 -0.000490248 0.0
0.187146 -0.000321252 0.0
0.209673 -0.000376792 0.0
0.210391 -0.000564798 0.0
0 0 0.0
0.0479006 -1.89861e-05 0.0
0.128267 -0.000239668 0.0
0.0906541 -9.80433e-05 0.0
0.127038 -0.000216227 0.0
0.159586 -0.000275135 0.0
0.0470754 -5.2885e-05 0.0
0.0894828 -0.000145321 0.0
0 0 0.0
0.16074 -0.000407097 0.0
0.188125 -0.000552311 0.0
0.247306 -0.000569649 0.0
0.249873 -0.000652106 0.0
0.240132 -0.000732595 0.0
0.227801 -0.000728636 0.0
0.247477 -0.000736147 0.0
0.239705 -0.000521168 0.0
0.227177 -0.00044531 0.0
0.187096 -0.0003299 0.0
0.209616 -0.00038388 0.0
0.21047 -0.000670453 0.0
0 0 0.0
0.0479465 -2.05509e-05 0.0
0.128416 -0.000283959 0.0
0.0907802 -0.000118225 0.0
0.126977 -0.000234763 0.0
0.159539 -0.000285036 0.0
0 0 0.0
0.0893916 -0.000164634 0.0
0.0469851 -6.2137e-05 0.0
0.188263 -0.000672514 0.0
0.160915 -0.000496373 0.0
0.22783 -0.000836979 0.0
0.247238 -0.000617801 0.0
0.249809 -0.000724524 0.0
0.247439 -0.000813885 0.0
0.240126 -0.000825145 0.0
0.239622 -0.000544222 0.0
0.227105 -0.000453654 0.0
0.187037 -0.000315823 0.0
0.209551 -0.000373301 0.0
0.210556 -0.000802013 0.0
0 0 0.0
0.0480064 -3.02661e-05 0.0
0.0909231 -0.000154245 0.0
0.128625 -0.000365825 0.0
0.126918 -0.00023802 0.0
0.159501 -0.000275791 0.0
0 0 0.0
0.0468748 -6.98702e-05 0.0
0.0893105 -0.000173021 0.0
0.188382 -0.00078605 0.0
0.161125 -0.000627733 0.0
0.22785 -0.000966966 0.0
0.240086 -0.00102483 0.0
0.247143 -0.000664264 0.0
0.249715 -0.000802033 0.0
0.247388 -0.000901177 0.0
0.239511 -0.00055638 0.0
0.227015 -0.000444693 0.0
0.186999 -0.000286028 0.0
0.209474 -0.000337531 0.0
0.210647 -0.000973095 0.0
0 0 0.0
0.0480971 -4.76757e-05 0.0
0.12893 -0.000521461 0.0
0.0911573 -0.000237141 0.0
0.126884 -0.000218315 0.0
0.159472 -0.000236185 0.0
0.0467721 -7.12557e-05 0.0
0 0 0.0
0.0892221 -0.000164275 0.0
0.161368 -0.000814402 0.0
0.188597 -0.00103938 0.0
0.227868 -0.00123261 0.0
0.240021 -0.00120502 0.0
0.247285 -0.00103365 0.0
0.246945 -0.000724879 0.0
0.249582 -0.000890692 0.0
0.239364 -0.00055371 0.0
0.226852 -0.000396273 0.0
0.186937 -0.000187619 0.0
0.20938 -0.000266954 0.0
0.210736 -0.00119437 0.0
0 0 0.0
0.0482361 -8.01573e-05 0.0
0.0914483 -0.000349502 0.0
0.161647 -0.00106529 0.0
0.129199 -0.000686907 0.0
0.126863 -0.000156834 0.0
0.159452 -0.000172502 0.0
0.0466739 -6.36935e-05 0.0
0 0 0.0
0.0891662 -0.000136308 0.0
0.210804 -0.00142387 0.0
0.188732 -0.00124339 0.0
0.23994 -0.00137615 0.0
0.22784 -0.00149413 0.0
0.247061 -0.00125632 0.0
0.249398 -0.000985952 0.0
0.246789 -0.0007543 0.0
0.239169 -0.000533748 0.0
0.226713 -0.000340443 0.0
0.186886 -9.16689e-05 0.0
0.159442 -8.57521e-06 0.0
0.209258 -0.000155246 0.0
0 0 0.0
0.0918131 -0.000496043 0.0
0.0484639 -0.000124517 0.0
0.161896 -0.0013313 0.0
0.12966 -0.000993203 0.0
0.126871 -4.14203e-05 0.0
0 0 0.0
0.0466029 -4.74057e-05 0.0
0.0891552 -6.10455e-05 0.0
0.210861 -0.0016973 0.0
0.188972 -0.00167912 0.0
0.239824 -0.00156518 0.0
0.227781 -0.0018065 0.0
0.246871 -0.00140468 0.0
0.249144 -0.00109342 0.0
0.246603 -0.000782213 0.0
0.159432 0.000152569 0.0
0.209124 -2.22866e-05 0.0
0.238908 -0.000494558 0.0
0.226541 -0.00026156 0.0
0.186804 9.03766e-05 0.0
0 0 0.0
0.0487666 -0.00017829 0.0
0.0923279 -0.000701076 0.0
0.162239 -0.00173126 0.0
0.130156 -0.0013374 0.0
0.0892267 5.43821e-05 0.0
0.126928 0.00016392 0.0
0 0 0.0
0.0465844 -1.18211e-05 0.0
0.210893 -0.00209125 0.0
0.189153 -0.00211719 0.0
0.239622 -0.0018474 0.0
0.227662 -0.00217379 0.0
0.246652 -0.00156743 0.0
0.24882 -0.00121264 0.0
0.24613 -0.000820612 0.0
0.159432 0.000425739 0.0
0.238576 -0.000434876 0.0
0.208952 0.000146487 0.0
0.226171 -7.57313e-05 0.0
0.186665 0.000410219 0.0
0 0 0.0
0.0931085 -0.000971315 0.0
0.0492291 -0.000262466 0.0
0.162711 -0.0023272 0.0
0.13078 -0.00175316 0.0
0.0893766 0.00019954 0.0
0.127043 0.000407371 0.0
0 0 0.0
0.0466315 2.54321e-05 0.0
0.189326 -0.00263927 0.0
0.21089 -0.00255898 0.0
0.239341 -0.00217918 0.0
0.24628 -0.00180213 0.0
0.227477 -0.0026019 0.0
0.24839 -0.0013451 0.0
0.245675 -0.00084934 0.0
0.238144 -0.000358812 0.0
0.247575 -0.00173062 0.0
0.159427 0.000767263 0.0
0.225786 0.000102773 0.0
0.208592 0.000481845 0.0
0.186536 0.000652069 0.0
0 0 0.0
0.0939234 -0.00123071 0.0
0.0498487 -0.000351031 0.0
0.163053 -0.00278752 0.0
0.13154 -0.00222903 0.0
0.0896616 0.000386082 0.0
0.127194 0.000666137 0.0
0 0 0.0
0.0467819 7.65571e-05 0.0
0.189481 -0.00323931 0.0
0.210828 -0.00310112 0.0
0.238957 -0.00254747 0.0
0.22721 -0.00309493 0.0
0.245542 -0.00220359 0.0
0.24723 -0.0011659 0.0
0.242091 -0.000572604 0.0
0.232166 3.342e-06 0.0
0.247532 -0.0015741 0.0
0.159439 0.00117827 0.0
0.217445 0.000522752 0.0
0.203224 0.000866792 0.0
0.186282 0.00113372 0.0
0 0 0.0
0.0950386 -0.00154793 0.0
0.0506244 -0.000447111 0.0
0.16355 -0.00342398 0.0
0.13246 -0.00275174 0.0
0.127524 0.0010763 0.0
0.0901043 0.000603967 0.0
0 0 0.0
0.0470834 0.000147539 0.0
0.189617 -0.00391245 0.0
0.210706 -0.00371249 0.0
0.244884 -0.00251219 0.0
0.226846 -0.00364251 0.0
0.238476 -0.00297298 0.0
0.24475 -0.000894146 0.0
0.237213 -0.000195655 0.0
0.22493 0.000466586 0.0
0.246787 -0.00175049 0.0
0.159452 0.00163232 0.0
0.207889 0.00104742 0.0
0.185995 0.00157332 0.0
0 0 0.0
0.0515322 -0.000544816 0.0
0.0963711 -0.0018757 0.0
0.133399 -0.00322169 0.0
0.189745 -0.00464233 0.0
0.16411 -0.0041073 0.0
0.127919 0.00147098 0.0
0.0907059 0.000838851 0.0
0.0474701 0.000222226 0.0
0 0 0.0
0.22647 -0.00414185 0.0
0.210514 -0.00438863 0.0
0.244273 -0.00278076 0.0
0.237861 -0.00344429 0.0
0.224246 0.000722808 0.0
0.243975 -0.000922814 0.0
0.236456 -8.01453e-05 0.0
0.245898 -0.00194787 0.0
0.185665 0.00205091 0.0
0.159519 0.0022252 0.0
0.207162 0.00154525 0.0
0 0 0.0
0.0526923 -0.000648808 0.0
0.098137 -0.00222604 0.0
0.13468 -0.00379689 0.0
0.189831 -0.00523726 0.0
0.164921 -0.00498426 0.0
0.12845 0.0018749 0.0
0.0915821 0.00110891 0.0
0.0480239 0.000298653 0.0
0 0 0.0
0.129146 0.00227757 0.0
0.22602 -0.00466592 0.0
0.210164 -0.00535437 0.0
0.236795 -0.00418347 0.0
0.243577 -0.00306733 0.0
0.223102 0.00109626 0.0
0.235549 4.29792e-05 0.0
0.243044 -0.000964551 0.0
0.244838 -0.00217395 0.0
0.185275 0.00255509 0.0
0.159606 0.00271897 0.0
0.206453 0.00194681 0.0
0 0 0.0
0.054018 -0.000738733 0.0
0.100018 -0.00255075 0.0
0.136161 -0.00436011 0.0
0.18996 -0.00604056 0.0
0.16571 -0.00572697 0.0
0.0486681 0.000361299 0.0
0.0925595 0.00132745 0.0
0 0 0.0
0.129823 0.00259499 0.0
0.225369 -0.00535786 0.0
0.209811 -0.00614943 0.0
0.235849 -0.00476006 0.0
0.242531 -0.00347969 0.0
0.222254 0.00131612 0.0
0.234483 0.000160807 0.0
0.243612 -0.00242564 0.0
0.241407 -0.00105157 0.0
0.184946 0.00292623 0.0
0.159754 0.00318614 0.0
0.205646 0.00235839 0.0
0 0 0.0
0.0555441 -0.00083957 0.0
0.102133 -0.00286039 0.0
0.138144 -0.00499533 0.0
0.19016 -0.00708848 0.0
0.209405 -0.00698542 0.0
0.166651 -0.00647054 0.0
0.0494379 0.000418042 0.0
0.0937063 0.00151869 0.0
0 0 0.0
0.130775 0.0029123 0.0
0.224323 -0.00635624 0.0
0.234994 -0.00526051 0.0
0.241325 -0.0039262 0.0
0.242568 -0.00264245 0.0
0.221318 0.00154319 0.0
0.233232 0.000253946 0.0
0.24004 -0.00113603 0.0
0.159996 0.00361696 0.0
0.184491 0.00339573 0.0
0.20472 0.00275409 0.0
0 0 0.0
0.0572728 -0.000950409 0.0
0.104499 -0.00314723 0.0
0.140137 -0.00551599 0.0
0.19031 -0.00772598 0.0
0.208956 -0.00784664 0.0
0.167755 -0.00720345 0.0
0.0503219 0.000454188 0.0
0.0950222 0.00167512 0.0
0 0 0.0
0.160228 0.00391117 0.0
0.0964524 0.00178851 0.0
0.132028 0.00318312 0.0
0.2234 -0.00716731 0.0
0.234037 -0.00577781 0.0
0.239267 -0.00464573 0.0
0.241426 -0.00287175 0.0
0.238867 -0.00122857 0.0
0.220039 0.0018016 0.0
0.231203 0.000365106 0.0
0.183903 0.00392814 0.0
0.203851 0.00306462 0.0
0.222578 -0.00784508 0.0
0 0 0.0
0.0590922 -0.00102453 0.0
0.142391 -0.00598973 0.0
0.107064 -0.00340769 0.0
0.208485 -0.00874178 0.0
0.190669 -0.0087871 0.0
0.169036 -0.00790285 0.0
0.051353 0.000492781 0.0
0 0 0.0
0.183548 0.00417915 0.0
0.160645 0.00419784 0.0
0.133309 0.00330071 0.0
0.052257 0.00051643 0.0
0.0979772 0.00181953 0.0
0.232725 -0.00647128 0.0
0.238004 -0.00507384 0.0
0.239729 -0.00321832 0.0
0.238332 -0.00351175 0.0
0.237567 -0.00133038 0.0
0.218594 0.00201538 0.0
0.229508 0.000401712 0.0
0.20293 0.00334704 0.0
0.221685 -0.00855209 0.0
0.0609102 -0.00109454 0.0
0 0 0.0
0.144455 -0.00635511 0.0
0.10981 -0.00362291 0.0
0.208015 -0.00964466 0.0
0.190964 -0.00941294 0.0
0.170538 -0.00856787 0.0
0 0 0.0
0.183134 0.0044561 0.0
0.161277 0.00436776 0.0
0.134438 0.00332798 0.0
0.0532201 0.000491618 0.0
0.0994982 0.001784 0.0
0.23062 -0.0075274 0.0
0.23665 -0.00552036 0.0
0.236822 -0.003821 0.0
0.234838 -0.00158105 0.0
0.217025 0.00219642 0.0
0.227662 0.000400285 0.0
0.201432 0.00367787 0.0
0.220548 -0.00944507 0.0
0 0 0.0
0.062996 -0.00113937 0.0
0.147104 -0.00673408 0.0
0.112447 -0.00379097 0.0
0.172243 -0.00916818 0.0
0.207574 -0.0105625 0.0
0.191629 -0.0104147 0.0
0 0 0.0
0 0 0.0
0.182775 0.00458023 0.0
0.161997 0.00433561 0.0
0.135883 0.00322131 0.0
0.101012 0.00166556 0.0
0.0541524 0.000442948 0.0
0.228958 -0.00833183 0.0
0.23473 -0.00615015 0.0
0.226044 0.000363504 0.0
0.234644 -0.00428241 0.0
0.232698 -0.00182823 0.0
0.215323 0.00230082 0.0
0.200239 0.00381971 0.0
0.227524 -0.00901225 0.0
0.219344 -0.0103587 0.0
0.0652032 -0.00119525 0.0
0.115497 -0.00394724 0.0
0.149978 -0.00707535 0.0
0.173823 -0.00961856 0.0
0.207202 -0.0114578 0.0
0.19216 -0.0110074 0.0
0 0 0.0
0 0 0.0
0.162608 0.00419291 0.0
0.182473 0.00452097 0.0
0.102275 0.00149447 0.0
0.137544 0.00292967 0.0
0.0549574 0.000382581 0.0
0.231648 -0.0071293 0.0
0.23226 -0.00480759 0.0
0.199069 0.00382006 0.0
0.224332 0.000287817 0.0
0.230923 -0.00206264 0.0
0.212877 0.00230368 0.0
0.226037 -0.00969035 0.0
0.217701 -0.0116017 0.0
0.20691 -0.0123317 0.0
0.0675112 -0.00127889 0.0
0.118685 -0.004095 0.0
0.153493 -0.00741808 0.0
0.17594 -0.0101164 0.0
0.193271 -0.0119119 0.0
0 0 0.0
0 0 0.0
0.163679 0.00374191 0.0
0.182396 0.00422468 0.0
0.103685 0.00118712 0.0
0.138974 0.00251713 0.0
0.0557067 0.000308704 0.0
0.229027 -0.00233414 0.0
0.229703 -0.00538715 0.0
0.229318 -0.007882 0.0
0.197959 0.00365445 0.0
0.222073 9.73282e-05 0.0
0.210993 0.00214239 0.0
0.182453 0.00369482 0.0
0.223286 -0.0109161 0.0
0 0 0.0
0.216464 -0.0125328 0.0
0.194412 -0.0125816 0.0
0.206731 -0.0131679 0.0
0.0697267 -0.00132786 0.0
0.156308 -0.00765361 0.0
0.122305 -0.00429167 0.0
0.1788 -0.0106916 0.0
0 0 0.0
0 0 0.0
0 0 0.0
0 0 0.0
0 0 0.0
0.0562153 0.000215272 0.0
0.140312 0.00195165 0.0
0.164672 0.00312429 0.0
0.104646 0.000888309 0.0
0.226436 -0.00274784 0.0
0.226989 -0.00604622 0.0
0.226849 -0.00868467 0.0
0.20943 0.00188922 0.0
0.196927 0.00325782 0.0
0.218697 -0.000358894 0.0
0.19616 0.00272398 0.0
0.182558 0.0031466 0.0
0.221245 -0.0118262 0.0
0.215266 -0.0134221 0.0
0 0 0.0
1.09649e-05 2.23431e-05 0.0
0 0 0.0
-0.000653788 0.00561849 0.0
0.206699 -0.0139662 0.0
0.195391 -0.0130579 0.0
0.0722743 -0.00141335 0.0
0.159655 -0.00795487 0.0
0.12571 -0.00451966 0.0
0.181424 -0.0111755 0.0
0 0 0.0
0 0 0.0
0 0 0.0
-0.000555908 0.00371277 0.0
-0.000216894 0.000363523 0.0
-0.000427482 0.00041089 0.0
0 0 0.0
0.056509 9.64219e-05 0.0
0.141277 0.00139972 0.0
0.165629 0.00231951 0.0
0.105464 0.000478962 0.0
0.223722 -0.0032878 0.0
0.224146 -0.00678645 0.0
0.224273 -0.0095177 0.0
0.207918 0.00149491 0.0
0.216737 -0.000776227 0.0
0.195472 0.00201514 0.0
0.182818 0.00192705 0.0
0.219194 -0.0127242 0.0
0.215741 -0.013924 0.0
0.210818 -0.0145467 0.0
0 0 0.0
-0.000343976 0.000198145 0.0
0 0 0.0
0 0 0.0
-0.00217882 0.0110758 0.0
-0.00241093 0.0082402 0.0
0.204519 -0.0145362 0.0
0.196815 -0.013711 0.0
0.128864 -0.00479353 0.0
0.0747439 -0.00154775 0.0
0.163125 -0.0083516 0.0
0.184123 -0.0117078 0.0
0 0 0.0
-0.00128105 0.00267362 0.0
-0.00191452 0.00517199 0.0
-0.0011974 0.00154762 0.0
-0.00159627 0.00113945 0.0
0 0 0.0
0.0566211 -1.95727e-05 0.0
0.142181 0.000661423 0.0
0.16649 0.00135653 0.0
0.105891 6.71776e-05 0.0
0.220899 -0.00394619 0.0
0.221242 -0.00761882 0.0
0.221638 -0.0103951 0.0
0.205508 0.00048082 0.0
0.21475 -0.00130297 0.0
0.194791 0.00091892 0.0
0.167237 0.000245306 0.0
0.183117 0.000699892 0.0
0.217575 -0.0134337 0.0
0.21344 -0.0148643 0.0
0.206909 -0.0153196 0.0
0 0 0.0
-0.00150592 0.000478139 0.0
0 0 0.0
0 0 0.0
0 0 0.0
0 0 0.0
-0.00472027 0.00855392 0.0
-0.000504684 0.00875474 0.0
-0.00203519 0.0133342 0.0
-0.004948 0.0168351 0.0
-0.00464595 0.0126394 0.0
0 0 0.0
6.84293e-05 0.0104463 0.0
0.198741 -0.014619 0.0
0.186391 -0.0122391 0.0
0 0 0.0
0.077728 -0.00178027 0.0
0.132549 -0.00521124 0.0
0.167245 -0.00909409 0.0
0 0 0.0
0 0 0.0
-0.00345125 0.00499934 0.0
-0.00330374 0.00309242 0.0
-0.00371156 0.00190645 0.0
0 0 0.0
0.0564777 -0.000144689 0.0
0.142819 -0.000250674 0.0
0.10593 -0.000347832 0.0
0.167582 -0.000661191 0.0
0.218064 -0.00476133 0.0
0.219057 -0.00830517 0.0
0.218988 -0.0113285 0.0
0.204153 -0.000362846 0.0