# vtk DataFile Version 3.0
Mesh NS-CD Problem
ASCII
DATASET UNSTRUCTURED_GRID
POINTS 10839 float
-2 0.3 0.0
-2 0.4 0.0
-2 0.35 0.0
-2 0.45 0.0
-2 0.5 0.0
-2 0.55 0.0
-2 0 0.0
-2 0.05 0.0
-2 0.85 0.0
-2 0.9 0.0
-2 0.1 0.0
-2 0.15 0.0
-2 0.25 0.0
-2 0.2 0.0
-1.96653 0.266667 0.0
-1.96524 0.415385 0.0
-1.96485 0.315 0.0
-1.96348 0.363636 0.0
-1.96414 0.464286 0.0
-2 0.6 0.0
-1.96538 0.584615 0.0
-1.96538 0.538462 0.0
-1.94979 0 0.0
-1.96653 0.0666666 0.0
-1.93306 0.0333333 0.0
-2 0.8 0.0
-2 0.75 0.0
-2 0.7 0.0
-2 0.65 0.0
-1.96249 0.7375 0.0
-1.96666 0.833333 0.0
-2 1 0.0
-2 0.95 0.0
-1.96249 0.8875 0.0
-1.96666 0.933333 0.0
-1.96234 0.1125 0.0
-1.96653 0.166667 0.0
-1.93724 0.225 0.0
-1.92971 0.28 0.0
-1.93048 0.380769 0.0
-1.93048 0.423077 0.0
-1.89958 0.3375 0.0
-1.9292 0.484203 0.0
-1.92117 0.530907 0.0
-1.96363 0.636364 0.0
-1.93076 0.576923 0.0
-1.89958 0 0.0
-1.88703 0.0375 0.0
-1.90963 0.08 0.0
-1.86611 0.0666666 0.0
-1.93749 0.775 0.0
-1.93635 0.672727 0.0
-1.92999 0.72 0.0
-1.93332 0.866667 0.0
-1.92856 0.821429 0.0
-1.94999 1 0.0
-1.92499 0.9625 0.0
-1.92499 0.925 0.0
-1.89998 0.9 0.0
-1.89958 0.125 0.0
-1.92827 0.178571 0.0
-1.89958 0.233333 0.0
-1.89045 0.290909 0.0
-1.86096 0.311538 0.0
-1.89241 0.392857 0.0
-1.89334 0.448489 0.0
-1.85655 0.357143 0.0
-1.89614 0.653846 0.0
-1.89427 0.504121 0.0
-1.8952 0.559753 0.0
-1.89614 0.615385 0.0
-1.84937 0 0.0
-1.83264 0.0333333 0.0
-1.85655 0.107143 0.0
-1.81172 0.075 0.0
-1.89998 0.766667 0.0
-1.89089 0.709091 0.0
-1.87498 0.85 0.0
-1.85998 0.79 0.0
-1.88748 0.8125 0.0
-1.89998 1 0.0
-1.88748 0.9625 0.0
-1.86664 0.933333 0.0
-1.85712 0.892857 0.0
-1.87448 0.15 0.0
-1.86611 0.194444 0.0
-1.83264 0.133333 0.0
-1.83264 0.2625 0.0
-1.82068 0.321429 0.0
-1.85664 0.404762 0.0
-1.85674 0.452381 0.0
-1.85683 0.5 0.0
-1.81184 0.375 0.0
-1.85712 0.642857 0.0
-1.85693 0.547619 0.0
-1.85702 0.595238 0.0
-1.79917 0 0.0
-1.78482 0.0357143 0.0
-1.79917 0.116667 0.0
-1.76569 0.0666666 0.0
-1.85452 0.745455 0.0
-1.82689 0.692308 0.0
-1.81815 0.781818 0.0
-1.82497 0.825 0.0
-1.84997 1 0.0
-1.8333 0.958333 0.0
-1.81247 0.8875 0.0
-1.81247 0.925 0.0
-1.81742 0.218182 0.0
-1.82427 0.175 0.0
-1.77634 0.145455 0.0
-1.79144 0.242308 0.0
-1.78482 0.285714 0.0
-1.77469 0.332653 0.0
-1.81215 0.529762 0.0
-1.81194 0.422619 0.0
-1.81203 0.470238 0.0
-1.76714 0.392857 0.0
-1.81234 0.625 0.0
-1.79732 0.571429 0.0
-1.74896 0 0.0
-1.73222 0.0333333 0.0
-1.75398 0.105 0.0
-1.71883 0.07 0.0
-1.79227 0.730769 0.0
-1.78007 0.679121 0.0
-1.75765 0.769231 0.0
-1.78178 0.818182 0.0
-1.78996 0.86 0.0
-1.79996 1 0.0
-1.78568 0.964286 0.0
-1.76663 0.922222 0.0
-1.76569 0.1875 0.0
-1.73222 0.15 0.0
-1.74896 0.25 0.0
-1.73714 0.304762 0.0
-1.76743 0.537202 0.0
-1.72869 0.343878 0.0
-1.76732 0.485119 0.0
-1.76723 0.440476 0.0
-1.72243 0.410714 0.0
-1.76757 0.607143 0.0
-1.69875 0 0.0
-1.68369 0.035 0.0
-1.69875 0.1125 0.0
-1.66528 0.075 0.0
-1.74341 0.708974 0.0
-1.73324 0.665934 0.0
-1.70441 0.74478 0.0
-1.71423 0.785714 0.0
-1.72303 0.826923 0.0
-1.74541 0.854545 0.0
-1.74541 0.890909 0.0
-1.74996 1 0.0
-1.73745 0.9625 0.0
-1.71359 0.927273 0.0
-1.68716 0.153846 0.0
-1.7131 0.214286 0.0
-1.70725 0.275 0.0
-1.69712 0.321939 0.0
-1.72279 0.589286 0.0
-1.72261 0.5 0.0
-1.7227 0.544643 0.0
-1.6827 0.355102 0.0
-1.67773 0.428571 0.0
-1.70763 0.464286 0.0
-1.70369 0.62449 0.0
-1.64854 0 0.0
-1.63181 0.0375 0.0
-1.64137 0.142857 0.0
-1.61764 0.0769231 0.0
-1.69458 0.703846 0.0
-1.67471 0.657437 0.0
-1.66143 0.727637 0.0
-1.67125 0.768571 0.0
-1.67851 0.821429 0.0
-1.68841 0.861538 0.0
-1.70904 0.890909 0.0
-1.69995 1 0.0
-1.68176 0.963636 0.0
-1.67267 0.927273 0.0
-1.65427 0.187143 0.0
-1.66718 0.231429 0.0
-1.66554 0.3 0.0
-1.67802 0.571429 0.0
-1.67792 0.523809 0.0
-1.6367 0.366327 0.0
-1.63682 0.423469 0.0
-1.62568 0.502976 0.0
-1.6629 0.470238 0.0
-1.65254 0.618367 0.0
-1.6059 0.307143 0.0
-1.59833 0 0.0
-1.58288 0.0384615 0.0
-1.60563 0.169643 0.0
-1.58179 0.112271 0.0
-1.56964 0.0714286 0.0
-1.64574 0.690385 0.0
-1.62827 0.751429 0.0
-1.63371 0.791071 0.0
-1.64279 0.857143 0.0
-1.65378 0.896154 0.0
-1.64994 1 0.0
-1.6363 0.963636 0.0
-1.61916 0.930769 0.0
-1.61345 0.209107 0.0
-1.62126 0.248571 0.0
-1.56989 0.196429 0.0
-1.63324 0.553571 0.0
-1.58846 0.535714 0.0
-1.59408 0.361905 0.0
-1.59161 0.402211 0.0
-1.58832 0.464286 0.0
-1.61504 0.598581 0.0
-1.59683 0.64359 0.0
-1.57899 0.274107 0.0
-1.56176 0.322381 0.0
-1.54812 0 0.0
-1.53378 0.0357143 0.0
-1.54593 0.147619 0.0
-1.53385 0.0732143 0.0
-1.53393 0.110714 0.0
-1.58522 0.704286 0.0
-1.58709 0.745 0.0
-1.58896 0.785714 0.0
-1.60695 0.830357 0.0
-1.60707 0.892857 0.0
-1.59993 1 0.0
-1.58454 0.965385 0.0
-1.57135 0.928571 0.0
-1.55209 0.241071 0.0
-1.5291 0.198214 0.0
-1.56936 0.570918 0.0
-1.54369 0.517857 0.0
-1.5464 0.380952 0.0
-1.54564 0.427721 0.0
-1.54488 0.47449 0.0
-1.55026 0.606122 0.0
-1.54222 0.677143 0.0
-1.52943 0.282857 0.0
-1.52143 0.33619 0.0
-1.49792 0 0.0
-1.49802 0.05 0.0
-1.49822 0.15 0.0
-1.49312 0.1 0.0
-1.5423 0.717143 0.0
-1.54419 0.767857 0.0
-1.54727 0.819048 0.0
-1.57122 0.861905 0.0
-1.53553 0.914286 0.0
-1.54992 1 0.0
-1.53563 0.964286 0.0
-1.49842 0.25 0.0
-1.48831 0.2 0.0
-1.5214 0.558929 0.0
-1.49891 0.5 0.0
-1.49871 0.4 0.0
-1.47631 0.45 0.0
-1.49911 0.6 0.0
-1.49921 0.65 0.0
-1.49931 0.7 0.0
-1.48111 0.35 0.0
-1.48351 0.3 0.0
-1.44771 0 0.0
-1.44782 0.05 0.0
-1.44804 0.15 0.0
-1.44793 0.1 0.0
-1.49941 0.75 0.0
-1.49951 0.8 0.0
-1.49981 0.95 0.0
-1.49961 0.85 0.0
-1.49971 0.9 0.0
-1.49991 1 0.0
-1.44826 0.25 0.0
-1.43815 0.2 0.0
-1.47151 0.55 0.0
-1.44881 0.5 0.0
-1.44859 0.4 0.0
-1.42619 0.45 0.0
-1.44913 0.65 0.0
-1.44902 0.6 0.0
-1.44935 0.75 0.0
-1.44924 0.7 0.0
-1.43972 0.35 0.0
-1.43336 0.3 0.0
-1.3975 0 0.0
-1.39762 0.05 0.0
-1.39786 0.15 0.0
-1.39274 0.1 0.0
-1.44957 0.85 0.0
-1.44946 0.8 0.0
-1.4523 0.95 0.0
-1.44968 0.9 0.0
-1.4499 1 0.0
-1.3981 0.25 0.0
-1.38798 0.2 0.0
-1.42141 0.55 0.0
-1.3987 0.5 0.0
-1.39834 0.35 0.0
-1.37845 0.4 0.0
-1.37607 0.45 0.0
-1.40784 0.65 0.0
-1.39894 0.6 0.0
-1.41185 0.75 0.0
-1.39918 0.7 0.0
-1.38322 0.3 0.0
-1.34729 0 0.0
-1.34492 0.05 0.0
-1.34018 0.15 0.0
-1.34255 0.1 0.0
-1.40707 0.85 0.0
-1.39941 0.8 0.0
-1.39977 0.95 0.0
-1.39965 0.9 0.0
-1.39989 1 0.0
-1.33781 0.2 0.0
-1.33544 0.25 0.0
-1.37131 0.55 0.0
-1.34859 0.5 0.0
-1.33833 0.4 0.0
-1.3307 0.35 0.0
-1.32595 0.45 0.0
-1.34885 0.6 0.0
-1.36655 0.65 0.0
-1.36179 0.75 0.0
-1.34911 0.7 0.0
-1.33307 0.3 0.0
-1.29708 0 0.0
-1.29722 0.05 0.0
-1.2975 0.15 0.0
-1.29236 0.1 0.0
-1.35703 0.85 0.0
-1.34937 0.8 0.0
-1.34988 1 0.0
-1.34962 0.9 0.0
-1.35226 0.95 0.0
-1.28528 0.25 0.0
-1.28764 0.2 0.0
-1.28931 0.35 0.0
-1.32121 0.55 0.0
-1.29848 0.5 0.0
-1.28709 0.45 0.0
-1.2982 0.4 0.0
-1.29876 0.6 0.0
-1.31647 0.65 0.0
-1.29918 0.75 0.0
-1.29904 0.7 0.0
-1.28292 0.3 0.0
-1.24687 0 0.0
-1.24702 0.05 0.0
-1.24717 0.1 0.0
-1.24732 0.15 0.0
-1.29946 0.85 0.0
-1.29932 0.8 0.0
-1.29987 1 0.0
-1.29974 0.95 0.0
-1.30462 0.9 0.0
-1.24762 0.25 0.0
-1.23747 0.2 0.0
-1.24792 0.35 0.0
-1.22807 0.4 0.0
-1.27111 0.55 0.0
-1.24837 0.5 0.0
-1.24822 0.45 0.0
-1.24867 0.6 0.0
-1.26639 0.65 0.0
-1.26167 0.75 0.0
-1.24897 0.7 0.0
-1.23277 0.3 0.0
-1.19667 0 0.0
-1.19683 0.05 0.0
-1.18964 0.15 0.0
-1.19198 0.1 0.0
-1.25695 0.85 0.0
-1.24927 0.8 0.0
-1.25223 0.95 0.0
-1.24987 1 0.0
-1.24957 0.9 0.0
-1.1873 0.2 0.0
-1.18496 0.25 0.0
-1.18028 0.35 0.0
-1.17794 0.4 0.0
-1.1981 0.45 0.0
-1.19842 0.55 0.0
-1.19826 0.5 0.0
-1.19858 0.6 0.0
-1.19874 0.65 0.0
-1.19906 0.75 0.0
-1.1989 0.7 0.0
-1.18262 0.3 0.0
-1.14646 0 0.0
-1.14663 0.05 0.0
-1.1418 0.1 0.0
-1.13713 0.2 0.0
-1.14697 0.15 0.0
-1.20691 0.85 0.0
-1.20926 0.8 0.0
-1.20221 0.95 0.0
-1.19986 1 0.0
-1.20456 0.9 0.0
-1.13997 0.3 0.0
-1.14731 0.25 0.0
-1.13781 0.4 0.0
-1.13014 0.35 0.0
-1.12548 0.45 0.0
-1.14815 0.5 0.0
-1.15962 0.55 0.0
-1.14849 0.6 0.0
-1.15745 0.65 0.0
-1.16155 0.75 0.0
-1.14917 0.8 0.0
-1.14883 0.7 0.0
-1.09625 0 0.0
-1.09661 0.1 0.0
-1.09393 0.05 0.0
-1.09697 0.2 0.0
-1.08929 0.15 0.0
-1.15687 0.85 0.0
-1.14985 1 0.0
-1.15219 0.95 0.0
-1.14951 0.9 0.0
-1.09733 0.3 0.0
-1.08465 0.25 0.0
-1.09769 0.4 0.0
-1.08 0.35 0.0
-1.08661 0.45 0.0
-1.09804 0.5 0.0
-1.12082 0.55 0.0
-1.10916 0.8 0.0
-1.10629 0.7 0.0
-1.0984 0.6 0.0
-1.11616 0.65 0.0
-1.11149 0.75 0.0
-1.04604 0 0.0
-1.04623 0.05 0.0
-1.04642 0.1 0.0
-1.0468 0.2 0.0
-1.03911 0.15 0.0
-1.09948 0.9 0.0
-1.0993 0.85 0.0
-1.09984 1 0.0
-1.09966 0.95 0.0
-1.04718 0.3 0.0
-1.03449 0.25 0.0
-1.04756 0.4 0.0
-1.02986 0.35 0.0
-1.04775 0.45 0.0
-1.04794 0.5 0.0
-1.04813 0.55 0.0
-1.05911 0.8 0.0
-1.04831 0.6 0.0
-1.06376 0.7 0.0
-1.0485 0.65 0.0
-1.04888 0.75 0.0
-0.995833 0 0.0
-0.991231 0.1 0.0
-0.996033 0.05 0.0
-0.986629 0.2 0.0
-0.98893 0.15 0.0
-1.05447 0.9 0.0
-1.04926 0.85 0.0
-1.04983 1 0.0
-1.04964 0.95 0.0
-0.984328 0.25 0.0
-0.99703 0.3 0.0
-0.997429 0.4 0.0
-0.997628 0.45 0.0
-0.979726 0.35 0.0
-0.997827 0.5 0.0
-0.998027 0.55 0.0
-0.998226 0.6 0.0
-0.961416 0.475 0.0
-1.00907 0.8 0.0
-0.998426 0.65 0.0
-0.998625 0.7 0.0
-1.01138 0.75 0.0
-0.945625 0 0.0
-0.946044 0.1 0.0
-0.943334 0.05 0.0
-0.946463 0.2 0.0
-0.938752 0.15 0.0
-1.00444 0.9 0.0
-1.00675 0.85 0.0
-0.999821 1 0.0
-1.00213 0.95 0.0
-0.93417 0.25 0.0
-0.946881 0.3 0.0
-0.9473 0.4 0.0
-0.929588 0.35 0.0
-0.925005 0.45 0.0
-0.960371 0.525 0.0
-0.959325 0.575 0.0
-0.958279 0.625 0.0
-0.922714 0.5 0.0
-0.959017 0.8 0.0
-0.957233 0.675 0.0
-0.952999 0.7125 0.0
-0.948766 0.75 0.0
-0.895417 0 0.0
-0.895855 0.1 0.0
-0.893136 0.05 0.0
-0.896294 0.2 0.0
-0.888573 0.15 0.0
-0.949184 0.85 0.0
-0.954415 0.9 0.0
-0.949812 1 0.0
-0.949603 0.95 0.0
-0.884011 0.25 0.0
-0.896733 0.3 0.0
-0.874887 0.45 0.0
-0.879449 0.35 0.0
-0.897171 0.4 0.0
-0.920423 0.55 0.0
-0.918132 0.6 0.0
-0.915841 0.65 0.0
-0.872606 0.5 0.0
-0.908968 0.8 0.0
-0.91355 0.7 0.0
-0.898707 0.75 0.0
-0.845208 0 0.0
-0.845438 0.05 0.0
-0.845667 0.1 0.0
-0.845896 0.15 0.0
-0.833853 0.25 0.0
-0.846126 0.2 0.0
-0.899146 0.85 0.0
-0.904386 0.9 0.0
-0.899584 0.95 0.0
-0.899804 1 0.0
-0.838062 0.35 0.0
[...]
POINT_DATA 10839
VECTORS Velocity float
0.21 0 0.0
0.24 0 0.0
0.2275 0 0.0
0.2475 0 0.0
0.25 0 0.0
0.2475 0 0.0
0 0 0.0
0.0475 0 0.0
0.1275 0 0.0
0.09 0 0.0
0.09 0 0.0
0.1275 0 0.0
0.1875 0 0.0
0.16 0 0.0
0.195557 -2.09123e-05 0.0
0.242841 -2.7805e-05 0.0
0.215776 -2.47471e-05 0.0
0.231406 -2.76709e-05 0.0
0.248725 -2.91916e-05 0.0
0.24 0 0.0
0.24284 -2.66172e-05 0.0
0.24852 -2.76935e-05 0.0
0 0 0.0
0.0622237 -3.6938e-06 0.0
0.0322264 -2.43107e-06 0.0
0.16 0 0.0
0.1875 0 0.0
0.21 0 0.0
0.2275 0 0.0
0.193592 -2.17639e-05 0.0
0.138888 -1.23708e-05 0.0
0 0 0.0
0.0475 0 0.0
0.0998419 -8.79029e-06 0.0
0.0622208 -3.70133e-06 0.0
0.0998459 -9.54798e-06 0.0
0.13889 -1.32372e-05 0.0
0.174379 -3.30208e-05 0.0
0.201605 -4.50314e-05 0.0
0.235786 -5.40298e-05 0.0
0.244084 -5.59334e-05 0.0
0.2236 -7.30385e-05 0.0
0.24975 -5.73863e-05 0.0
0.249043 -6.30378e-05 0.0
0.231404 -2.64598e-05 0.0
0.244081 -5.29301e-05 0.0
0 0 0.0
0.0361063 -4.68521e-06 0.0
0.0736111 -1.30659e-05 0.0
0.0622457 -1.43343e-05 0.0
0.174371 -3.00321e-05 0.0
0.220163 -4.142e-05 0.0
0.201596 -4.13853e-05 0.0
0.11555 -1.84865e-05 0.0
0.146678 -2.8095e-05 0.0
0 0 0.0
0.0360882 -3.13924e-06 0.0
0.0693676 -9.93458e-06 0.0
0.0899866 -1.9193e-05 0.0
0.109389 -2.74014e-05 0.0
0.14669 -2.96947e-05 0.0
0.1789 -5.53406e-05 0.0
0.206291 -7.20452e-05 0.0
0.214497 -9.69439e-05 0.0
0.238525 -8.43526e-05 0.0
0.247348 -8.6361e-05 0.0
0.229603 -0.000108471 0.0
0.226325 -7.03374e-05 0.0
0.249981 -8.51021e-05 0.0
0.246426 -8.13817e-05 0.0
0.236681 -7.56317e-05 0.0
0 0 0.0
0.032247 -5.35208e-06 0.0
0.0956923 -3.10992e-05 0.0
0.0694222 -2.35566e-05 0.0
0.178879 -4.94987e-05 0.0
0.206271 -6.5644e-05 0.0
0.127481 -3.8558e-05 0.0
0.165879 -6.18432e-05 0.0
0.15233 -4.50775e-05 0.0
0 0 0.0
0.0360816 -4.41402e-06 0.0
0.0622005 -1.34279e-05 0.0
0.0956368 -2.93653e-05 0.0
0.127521 -4.23961e-05 0.0
0.156658 -6.1689e-05 0.0
0.115595 -4.86561e-05 0.0
0.193621 -0.000101845 0.0
0.218135 -0.000128262 0.0
0.240936 -0.000113948 0.0
0.247734 -0.000116181 0.0
0.249997 -0.00011522 0.0
0.234391 -0.000146536 0.0
0.229579 -9.70334e-05 0.0
0.247726 -0.000111606 0.0
0.24092 -0.000105873 0.0
0 0 0.0
0.0344812 -7.4658e-06 0.0
0.103112 -4.77831e-05 0.0
0.0622923 -2.38028e-05 0.0
0.189733 -7.66641e-05 0.0
0.212995 -0.000105596 0.0
0.170545 -8.20988e-05 0.0
0.144341 -6.17972e-05 0.0
0 0 0.0
0.0399035 -7.33847e-06 0.0
0.0997987 -3.94848e-05 0.0
0.0693318 -2.11943e-05 0.0
0.170618 -9.40712e-05 0.0
0.144415 -7.10038e-05 0.0
0.124367 -7.17674e-05 0.0
0.183642 -0.000119462 0.0
0.204123 -0.000143104 0.0
0.222028 -0.000167502 0.0
0.249105 -0.000148087 0.0
0.244019 -0.000151796 0.0
0.249113 -0.00015247 0.0
0.238539 -0.000186515 0.0
0.234355 -0.000130285 0.0
0.244881 -0.000152159 0.0
0 0 0.0
0.0322831 -7.75166e-06 0.0
0.0940609 -4.97821e-05 0.0
0.0652009 -2.89657e-05 0.0
0.196708 -0.000111068 0.0
0.21788 -0.000135738 0.0
0.177459 -0.000111139 0.0
0.148708 -8.00533e-05 0.0
0.120346 -5.71676e-05 0.0
0 0 0.0
0.0343991 -6.86141e-06 0.0
0.0716615 -2.74825e-05 0.0
0.152415 -0.000103474 0.0
0.127601 -8.86662e-05 0.0
0.187568 -0.000149655 0.0
0.211939 -0.000186927 0.0
0.248598 -0.000180653 0.0
0.22567 -0.000210269 0.0
0.249772 -0.000188371 0.0
0.246462 -0.000190365 0.0
0.242045 -0.000228464 0.0
0.23849 -0.00016402 0.0
0 0 0.0
0.0338601 -8.79752e-06 0.0
0.0999734 -6.38883e-05 0.0
0.0695186 -3.40523e-05 0.0
0.206277 -0.000141926 0.0
0.222415 -0.000165205 0.0
0.190006 -0.000143559 0.0
0.168287 -0.000119398 0.0
0.143036 -9.47715e-05 0.0
0.12422 -7.16961e-05 0.0
0.0971082 -4.922e-05 0.0
0 0 0.0
0.0360343 -8.77126e-06 0.0
0.0673403 -3.05759e-05 0.0
0.130318 -0.000105735 0.0
0.168471 -0.000147456 0.0
0.199459 -0.0001954 0.0
0.218361 -0.000229399 0.0
0.241988 -0.000199323 0.0
0.249983 -0.000223035 0.0
0.247977 -0.000212411 0.0
0.229058 -0.000257187 0.0
0.244907 -0.000271512 0.0
0.248719 -0.000241201 0.0
0.234448 -0.000196377 0.0
0 0 0.0
0.0362066 -8.52412e-06 0.0
0.122639 -0.000102934 0.0
0.0711894 -3.2174e-05 0.0
0.208374 -0.000166089 0.0
0.225139 -0.000196001 0.0
0.198088 -0.000166592 0.0
0.177772 -0.000142985 0.0
0.146574 -0.000112616 0.0
0.119174 -8.34822e-05 0.0
0.0970838 -5.70043e-05 0.0
0 0 0.0
0.0349567 -1.08888e-05 0.0
0.06731 -3.72833e-05 0.0
0.152288 -0.000152283 0.0
0.178005 -0.000193056 0.0
0.210097 -0.000247718 0.0
0.244845 -0.000233737 0.0
0.249396 -0.000252903 0.0
0.23219 -0.000308666 0.0
0.244153 -0.000315169 0.0
0.249943 -0.0003032 0.0
0.249098 -0.000281325 0.0
0.235911 -0.000225374 0.0
0.212938 -0.000318359 0.0
0 0 0.0
0.0371153 -5.47212e-06 0.0
0.141102 -0.000149198 0.0
0.0999245 -6.53661e-05 0.0
0.0665381 -1.9308e-05 0.0
0.213659 -0.000190508 0.0
0.186669 -0.000164766 0.0
0.165154 -0.000142965 0.0
0.122303 -0.000102968 0.0
0.092913 -6.86841e-05 0.0
0 0 0.0
0.0349282 -1.43424e-05 0.0
0.0642632 -4.76678e-05 0.0
0.165591 -0.00020332 0.0
0.186957 -0.000247436 0.0
0.158131 -0.000212851 0.0
0.247062 -0.000271227 0.0
0.248636 -0.000314399 0.0
0.231005 -0.000362226 0.0
0.240465 -0.000370445 0.0
0.248689 -0.000356287 0.0
0.240187 -0.000254561 0.0
0.229266 -0.000229637 0.0
0.199169 -0.00032184 0.0
0.218596 -0.000390647 0.0
0 0 0.0
0.0345734 1.97497e-07 0.0
0.126172 -0.000126929 0.0
0.0680955 -1.27658e-05 0.0
0.0987839 -5.74553e-05 0.0
0.208139 -0.000194046 0.0
0.189843 -0.000173615 0.0
0.168226 -0.000157529 0.0
0.14071 -0.000132483 0.0
0.0954738 -9.0698e-05 0.0
0 0 0.0
0.033265 -1.87806e-05 0.0
0.0660941 -6.78539e-05 0.0
0.18323 -0.000307983 0.0
0.159295 -0.000250096 0.0
0.24485 -0.000296128 0.0
0.249565 -0.000362352 0.0
0.235884 -0.00043628 0.0
0.244761 -0.00042719 0.0
0.249274 -0.000400565 0.0
0.238591 -0.000268494 0.0
0.218464 -0.000208832 0.0
0.203092 -0.000405797 0.0
0.223311 -0.000469786 0.0
0 0 0.0
0.0476842 3.89624e-06 0.0
0.127958 -0.000149734 0.0
0.0903672 -3.85876e-05 0.0
0.202698 -0.000183298 0.0
0.178102 -0.000165581 0.0
0.148039 -0.000156646 0.0
0.118829 -0.000130388 0.0
0.0780871 -0.00010361 0.0
0 0 0.0
0.0342259 -2.79661e-05 0.0
0.18786 -0.000406462 0.0
0.160471 -0.000302807 0.0
0.246361 -0.000329861 0.0
0.24985 -0.000420828 0.0
0.240012 -0.000517245 0.0
0.247396 -0.000514993 0.0
0.239793 -0.000279537 0.0
0.2273 -0.000219774 0.0
0.209821 -0.000174513 0.0
0.227629 -0.000562246 0.0
0.210262 -0.000519909 0.0
0 0 0.0
0.0476895 6.37953e-06 0.0
0.128113 -0.000192346 0.0
0.0904489 -4.70878e-05 0.0
0.18734 -0.000155475 0.0
0.15984 -0.00015647 0.0
0.0471839 -5.83817e-05 0.0
0.127293 -0.000161779 0.0
0.0896962 -0.000137047 0.0
0 0 0.0
0.187972 -0.000518034 0.0
0.160631 -0.000393263 0.0
0.247264 -0.000364205 0.0
0.249767 -0.000473765 0.0
0.239981 -0.000623771 0.0
0.247315 -0.000605377 0.0
0.227239 -0.000186535 0.0
0.239713 -0.000269803 0.0
0.187337 -0.000110966 0.0
0.209784 -0.000129127 0.0
0.227637 -0.000669056 0.0
0.210323 -0.000660031 0.0
0 0 0.0
0.0477049 -3.09029e-06 0.0
0.12831 -0.000281237 0.0
0.0905884 -9.39765e-05 0.0
0.127302 -0.000156943 0.0
0.159858 -0.000127734 0.0
0.0470912 -6.73693e-05 0.0
0.0896437 -0.000148104 0.0
0 0 0.0
0.188106 -0.000678752 0.0
0.16083 -0.000537734 0.0
0.247158 -0.000378546 0.0
0.249649 -0.000528177 0.0
0.227629 -0.000803318 0.0
0.239892 -0.000821555 0.0
0.2472 -0.000711887 0.0
0.22717 -0.00013809 0.0
0.239599 -0.000239546 0.0
0.187339 -5.02049e-05 0.0
0.20974 -4.23154e-05 0.0
0.210385 -0.000846955 0.0
0 0 0.0
0.047762 -2.66729e-05 0.0
0.128605 -0.000472956 0.0
0.0907813 -0.000191048 0.0
0.127328 -0.00011756 0.0
0.159899 -5.27094e-05 0.0
0.0469889 -6.69903e-05 0.0
0.0896071 -0.000130765 0.0
0 0 0.0
0.161067 -0.00075998 0.0
0.188297 -0.00097164 0.0
0.247006 -0.000384701 0.0
0.249476 -0.00058839 0.0
0.239799 -0.000967719 0.0
0.227588 -0.00108976 0.0
0.247028 -0.000838339 0.0
0.23944 -0.00018404 0.0
0.227078 -6.22007e-05 0.0
0.187344 8.27247e-05 0.0
0.209676 9.38817e-05 0.0
0.210439 -0.00110202 0.0
0 0 0.0
0.0478797 -6.85079e-05 0.0
0.128876 -0.000694846 0.0
0.0910742 -0.000353132 0.0
0.12739 -1.3093e-05 0.0
0.159958 9.02638e-05 0.0
0 0 0.0
0.0896166 -6.31253e-05 0.0
0.046912 -5.29296e-05 0.0
0.188453 -0.00131719 0.0
0.161331 -0.00108149 0.0
0.22752 -0.0013231 0.0
0.246796 -0.000378469 0.0
0.249238 -0.000653906 0.0
0.246846 -0.000953188 0.0
0.239672 -0.00113877 0.0
0.239219 -9.862e-05 0.0
0.226929 7.05302e-05 0.0
0.187345 0.000354584 0.0
0.20958 0.00029344 0.0
0.21047 -0.0014234 0.0
0 0 0.0
0.0481164 -0.000142764 0.0
0.0914584 -0.00055839 0.0
0.129268 -0.00105238 0.0
0.12752 0.000216592 0.0
0.160032 0.00032531 0.0
0 0 0.0
0.0468858 -1.68979e-05 0.0
0.0896889 5.28212e-05 0.0
0.188564 -0.00163665 0.0
0.161624 -0.0015223 0.0
0.227409 -0.00160201 0.0
0.239342 -0.00150866 0.0
0.246507 -0.000359803 0.0
0.248911 -0.000722681 0.0
0.246615 -0.00108593 0.0
0.238917 1.99126e-05 0.0
0.226716 0.000255658 0.0
0.187315 0.000588527 0.0
0.209434 0.000565799 0.0
0.210459 -0.00183323 0.0
0 0 0.0
0.0485099 -0.00022983 0.0
0.129878 -0.00160723 0.0
0.0921566 -0.000898643 0.0
0.127659 0.000470995 0.0
0.160112 0.000666927 0.0
0.0469594 3.91581e-05 0.0
0 0 0.0
0.0899086 0.000266896 0.0
0.161934 -0.00208416 0.0
0.188717 -0.00231125 0.0
0.227129 -0.00215309 0.0
0.238979 -0.00183337 0.0
0.246217 -0.00128744 0.0
0.245916 -0.00030745 0.0
0.248476 -0.000805949 0.0
0.238515 0.000175504 0.0
0.226303 0.000594889 0.0
0.187236 0.00110581 0.0
0.209216 0.000920232 0.0
0.210391 -0.00233966 0.0
0 0 0.0
0.0490962 -0.000346917 0.0
0.0930163 -0.0012606 0.0
0.162275 -0.0027572 0.0
0.130411 -0.00209897 0.0
0.127906 0.000872679 0.0
0.160166 0.00102107 0.0
0.0471656 0.000122175 0.0
0 0 0.0
0.0902195 0.000493556 0.0
0.210268 -0.0028399 0.0
0.188758 -0.00280078 0.0
0.238609 -0.0021377 0.0
0.226782 -0.00265965 0.0
0.245434 -0.00161996 0.0
0.247912 -0.000894787 0.0
0.245475 -0.000268057 0.0
0.237989 0.000365089 0.0
0.225938 0.000854725 0.0
0.187119 0.00148852 0.0
0.160274 0.00169513 0.0
0.208907 0.00135438 0.0
0 0 0.0
0.0940719 -0.00163737 0.0
0.0499336 -0.000478759 0.0
0.162572 -0.00338773 0.0
0.131374 -0.00285297 0.0
0.12826 0.00137381 0.0
0 0 0.0
0.0475382 0.000216375 0.0
0.090854 0.000842797 0.0
0.210079 -0.0034017 0.0
0.188797 -0.0037502 0.0
0.238146 -0.00246029 0.0
0.226331 -0.00323511 0.0
0.244856 -0.00183436 0.0
0.247188 -0.000996244 0.0
0.244964 -0.000222985 0.0
0.160323 0.00221024 0.0
0.208547 0.00178602 0.0
0.23731 0.000586655 0.0
0.225493 0.00115118 0.0
0.186917 0.00208585 0.0
0 0 0.0
0.0509191 -0.000599068 0.0
0.0954702 -0.0020742 0.0
0.162978 -0.00422412 0.0
0.132399 -0.00355892 0.0
0.0916934 0.00121253 0.0
0.128821 0.00202754 0.0
0 0 0.0
0.0481472 0.000339843 0.0
0.209745 -0.00415205 0.0
0.18874 -0.00460499 0.0
0.237432 -0.00292406 0.0
0.225727 -0.00387031 0.0
0.244209 -0.0020637 0.0
0.246309 -0.00110991 0.0
0.243736 -0.000116505 0.0
0.160434 0.00294221 0.0
0.236477 0.000836891 0.0
0.2081 0.00226546 0.0
0.224556 0.00171375 0.0
0.186548 0.00293903 0.0
0 0 0.0
0.0974191 -0.00254317 0.0
0.0522766 -0.000739969 0.0
0.163585 -0.00530674 0.0
0.133688 -0.00428221 0.0
0.0926779 0.00156909 0.0
0.129504 0.0026347 0.0
0 0 0.0
0.0488935 0.000452935 0.0
0.18865 -0.00552961 0.0
0.209304 -0.00497354 0.0
0.236544 -0.00343786 0.0
0.243194 -0.00239051 0.0
0.224972 -0.00457014 0.0
0.245222 -0.00123824 0.0
0.242636 -4.7262e-05 0.0
0.235447 0.00110431 0.0
0.243891 -0.00200304 0.0
0.160556 0.0036988 0.0
0.223636 0.00217512 0.0
0.207205 0.00307621 0.0
0.186244 0.00348867 0.0
0 0 0.0
0.0993029 -0.00291135 0.0
0.0538474 -0.00087906 0.0
0.164049 -0.00603748 0.0
0.135227 -0.00499507 0.0
0.0940225 0.00193338 0.0
0.130232 0.0031663 0.0
0 0 0.0
0.0498647 0.000551009 0.0
0.188524 -0.00649736 0.0
0.208732 -0.00585756 0.0
0.235468 -0.00398798 0.0
0.224052 -0.00532698 0.0
0.241357 -0.00292171 0.0
0.243554 -0.000670196 0.0
0.238654 0.000679058 0.0
0.229203 0.00196821 0.0
0.243208 -0.00145941 0.0
0.160767 0.00447021 0.0
0.215195 0.0031276 0.0
0.201659 0.00389808 0.0
0.18569 0.00445533 0.0
0 0 0.0
0.101673 -0.00328536 0.0
0.0556092 -0.000992883 0.0
0.164792 -0.00693974 0.0
0.137044 -0.00565662 0.0
0.131492 0.0038519 0.0
0.0956569 0.00226897 0.0
0 0 0.0
0.0511698 0.000655092 0.0
0.188395 -0.00748591 0.0
0.208052 -0.00678717 0.0
0.239832 -0.00331596 0.0
0.22296 -0.00612827 0.0
0.234201 -0.00459083 0.0
0.24054 5.7253e-05 0.0
0.233376 0.00156973 0.0
0.221731 0.00298704 0.0
0.241575 -0.00163306 0.0
0.161056 0.00518907 0.0
0.205648 0.00420886 0.0
0.185171 0.00521916 0.0
0 0 0.0
0.0574239 -0.00108298 0.0
0.104303 -0.003591 0.0
0.138848 -0.00614934 0.0
0.188309 -0.00845741 0.0
0.165696 -0.00778886 0.0
0.132823 0.00437864 0.0
0.0975226 0.00255096 0.0
0.0524878 0.000754428 0.0
0 0 0.0
0.221929 -0.00682694 0.0
0.207279 -0.00774307 0.0
0.238485 -0.00365153 0.0
0.232723 -0.0052315 0.0
0.220314 0.00349281 0.0
0.238892 0.000122208 0.0
0.231793 0.00186352 0.0
0.239709 -0.00182893 0.0
0.184666 0.00593921 0.0
0.161612 0.0059613 0.0
0.2042 0.00507752 0.0
0 0 0.0
0.0595393 -0.00113268 0.0
0.107474 -0.00382347 0.0
0.14121 -0.00664334 0.0
0.188293 -0.00918151 0.0
0.167119 -0.00870118 0.0
0.134398 0.00478814 0.0
0.0998281 0.00277385 0.0
0.0539986 0.000811073 0.0
0 0 0.0
0.136261 0.00505209 0.0
0.220797 -0.00753581 0.0
0.206167 -0.00899699 0.0
0.230312 -0.00619091 0.0
0.237003 -0.00400405 0.0
0.218098 0.00416777 0.0
0.229982 0.00215417 0.0
0.237004 0.000166528 0.0
0.237588 -0.00205254 0.0
0.184198 0.00659685 0.0
0.162283 0.00644863 0.0
0.20295 0.00569351 0.0
0 0 0.0
0.0617038 -0.00115549 0.0
0.110577 -0.00395657 0.0
0.143848 -0.00699481 0.0
0.188392 -0.0100428 0.0
0.168577 -0.00931345 0.0
0.0554853 0.000820163 0.0
0.102081 0.00285287 0.0
0 0 0.0
0.137943 0.00514432 0.0
0.2193 -0.00840868 0.0
0.205295 -0.00992572 0.0
0.228342 -0.0069018 0.0
0.234876 -0.00449372 0.0
0.216579 0.00453353 0.0
0.227948 0.0024226 0.0
0.23522 -0.00230711 0.0
0.233826 0.000195276 0.0
0.183901 0.00698701 0.0
0.163163 0.00674597 0.0
0.201654 0.00623702 0.0
0 0 0.0
0.0639464 -0.00116936 0.0
0.113754 -0.00400588 0.0
0.147177 -0.00722302 0.0
0.188778 -0.0109501 0.0
0.204453 -0.010779 0.0
0.17034 -0.00975996 0.0
0.0570168 0.000795184 0.0
0.104403 0.00282218 0.0
0 0 0.0
0.140105 0.00505827 0.0
0.217115 -0.0095519 0.0
0.226624 -0.00748946 0.0
0.232524 -0.00500529 0.0
0.233271 -0.00252443 0.0
0.214976 0.00485501 0.0
0.225685 0.00263566 0.0
0.231324 0.000170479 0.0
0.164319 0.00681645 0.0
0.183648 0.00733542 0.0
0.200356 0.00664211 0.0
0 0 0.0
0.066194 -0.00119435 0.0
0.117006 -0.003959 0.0
0.150324 -0.0072572 0.0
0.189199 -0.0113632 0.0
0.203728 -0.0115031 0.0
0.172393 -0.0100192 0.0
0.0585111 0.000730823 0.0
0.106746 0.00267654 0.0
0 0 0.0
0.165348 0.00668963 0.0
0.108955 0.00242789 0.0
0.142674 0.00470627 0.0
0.215428 -0.0103441 0.0
0.224814 -0.00804693 0.0
0.228703 -0.00577873 0.0
0.231202 -0.00275893 0.0
0.229228 0.000112965 0.0
0.212938 0.00514141 0.0
0.222199 0.00282331 0.0
0.183583 0.00743222 0.0
0.199295 0.00682676 0.0
0.214051 -0.0108819 0.0
0 0 0.0
0.068331 -0.00115424 0.0
0.153607 -0.00713473 0.0
0.120203 -0.00385555 0.0
0.203162 -0.0120516 0.0
0.190201 -0.0117799 0.0
0.174701 -0.0100738 0.0
0.0599877 0.000646437 0.0
0 0 0.0
0.183744 0.00723757 0.0
0.166864 0.00626617 0.0
0.144967 0.00415826 0.0
0.0610445 0.000573504 0.0
0.110995 0.00204532 0.0
0.222474 -0.00871935 0.0
0.226516 -0.00619763 0.0
0.228248 -0.00311473 0.0
0.22592 -0.00341777 0.0
0.227011 8.73302e-06 0.0
0.210852 0.00523267 0.0
0.219539 0.00279181 0.0
0.198334 0.00681982 0.0
0.212729 -0.011322 0.0
0.0702445 -0.00112405 0.0
0 0 0.0
0.156391 -0.00694861 0.0
0.1233 -0.0037036 0.0
0.202799 -0.0123825 0.0
0.191042 -0.0118671 0.0
0.17723 -0.00994664 0.0
0 0 0.0
0.184115 0.0067125 0.0
0.168792 0.00537638 0.0
0.146749 0.00357016 0.0
0.0619965 0.000430341 0.0
0.112708 0.00160829 0.0
0.219058 -0.00952352 0.0
0.224254 -0.0065981 0.0
0.223545 -0.00375305 0.0
0.222604 -0.000353668 0.0
0.20881 0.0050819 0.0
0.216818 0.00256145 0.0
0.197086 0.00636 0.0
0.211257 -0.0117034 0.0
0 0 0.0
0.0722637 -0.00106264 0.0
0.159646 -0.00667179 0.0
0.125986 -0.0035592 0.0
0.179867 -0.00966876 0.0
0.202681 -0.0125048 0.0
0.192677 -0.0117383 0.0
0 0 0.0
0 0 0.0
0.184707 0.00582334 0.0
0.170508 0.00433153 0.0
0.148702 0.00272561 0.0
0.114073 0.00111574 0.0
0.0626897 0.000269492 0.0
0.216705 -0.00996551 0.0
0.221293 -0.00710127 0.0
0.214655 0.00222027 0.0
0.220339 -0.00425614 0.0
0.2195 -0.000805965 0.0
0.206882 0.00460937 0.0
0.196379 0.00559481 0.0
0.214872 -0.0102379 0.0
0.20995 -0.0119052 0.0
0.0742221 -0.00103109 0.0
0.128813 -0.00340788 0.0
0.162848 -0.00640037 0.0
0.182082 -0.00939806 0.0
0.202785 -0.0124368 0.0
0.193851 -0.0115801 0.0
0 0 0.0
0 0 0.0
0.171717 0.00338256 0.0
0.185575 0.00429522 0.0
0.114917 0.000660476 0.0
0.150502 0.00166668 0.0
0.063085 0.000123865 0.0
0.217072 -0.00778266 0.0
0.217198 -0.00485728 0.0
0.195869 0.00446226 0.0
0.212549 0.00169849 0.0
0.217107 -0.00128301 0.0
0.204518 0.003449 0.0
0.213197 -0.010452 0.0
0.208547 -0.0119743 0.0
0.203085 -0.0122682 0.0
0.0761102 -0.00105768 0.0
0.13155 -0.00333014 0.0
0.166301 -0.00619004 0.0
0.184732 -0.0090587 0.0
0.195891 -0.0112118 0.0
0 0 0.0
0 0 0.0
0.173326 0.0018109 0.0
0.186368 0.00280264 0.0
0.115536 9.86369e-05 0.0
0.151631 0.000721369 0.0
0.0632494 -1.5226e-05 0.0
0.214783 -0.00186739 0.0
0.214222 -0.00554794 0.0
0.214378 -0.00826144 0.0
0.195546 0.0030495 0.0
0.210092 0.000779815 0.0
0.20305 0.0021983 0.0
0.187047 0.00120085 0.0
0.21059 -0.0107798 0.0
0 0 0.0
0.207738 -0.0120151 0.0
0.197624 -0.0109823 0.0
0.203529 -0.0121062 0.0
0.0778885 -0.00108919 0.0
0.168809 -0.00614566 0.0
0.134451 -0.00340725 0.0
0.187849 -0.00886987 0.0
0 0 0.0
0 0 0.0
0 0 0.0
0 0 0.0
0 0 0.0
0.0631427 -0.000137454 0.0
0.152315 -0.0002039 0.0
0.174358 0.000462106 0.0
0.115689 -0.000322859 0.0
0.211958 -0.00277987 0.0
0.211513 -0.00634554 0.0
0.211908 -0.00879383 0.0
0.201965 0.000988354 0.0
0.195312 0.00141843 0.0
0.206963 -0.000908914 0.0
0.195161 -4.59049e-05 0.0
0.187415 5.97185e-06 0.0
0.209035 -0.0111166 0.0
0.20713 -0.0121104 0.0
0 0 0.0
-9.20765e-05 8.19711e-05 0.0
0 0 0.0
-0.000752777 0.00728534 0.0
0.204078 -0.0120869 0.0
0.198876 -0.0109434 0.0
0.0799326 -0.00118576 0.0
0.171567 -0.00629395 0.0
0.137098 -0.00364861 0.0
0.190331 -0.00898432 0.0
0 0 0.0
0 0 0.0
0 0 0.0
-0.000660438 0.00503478 0.0
-0.000336199 0.000735942 0.0
-0.000752852 0.000747175 0.0
0 0 0.0
0.0627673 -0.000258373 0.0
0.152522 -0.000910663 0.0
0.174965 -0.000813888 0.0
0.115378 -0.000771393 0.0
0.209413 -0.00388 0.0
0.209088 -0.00725361 0.0
0.209733 -0.0093902 0.0
0.201028 -0.000324246 0.0
0.205448 -0.00205498 0.0
0.194953 -0.00149099 0.0
0.1877 -0.00190638 0.0
0.207714 -0.0115864 0.0
0.207068 -0.0122479 0.0
0.2058 -0.0124326 0.0
0 0 0.0
-0.000724676 0.000327075 0.0
0 0 0.0
0 0 0.0
-0.00247804 0.0137984 0.0
-0.00281805 0.0105748 0.0
0.203751 -0.0121204 0.0
0.20044 -0.0111691 0.0
0.139556 -0.00403521 0.0
0.0819977 -0.00137033 0.0
0.17427 -0.00674756 0.0
0.192594 -0.00943165 0.0
0 0 0.0
-0.00167099 0.00387645 0.0
-0.00233651 0.00695993 0.0
-0.0017069 0.0023673 0.0
-0.00242048 0.00166668 0.0
0 0 0.0
0.0622217 -0.000359566 0.0
0.152356 -0.00165583 0.0
0.175146 -0.00196642 0.0
0.114755 -0.00112631 0.0
0.207137 -0.00509472 0.0
0.20699 -0.0082669 0.0
0.207848 -0.0101159 0.0
0.199685 -0.00261299 0.0
0.204043 -0.003257 0.0
0.194637 -0.00313395 0.0
0.174974 -0.00299591 0.0
0.187665 -0.00329353 0.0
0.206798 -0.0121033 0.0
0.206404 -0.0127762 0.0
0.205003 -0.0127294 0.0
0 0 0.0
-0.00238546 0.000659629 0.0
0 0 0.0
0 0 0.0
0 0 0.0
0 0 0.0
-0.00562346 0.0108304 0.0
-0.000572433 0.0108369 0.0
-0.00229567 0.0163413 0.0
-0.00556792 0.0201817 0.0
-0.00531732 0.0155266 0.0
0 0 0.0
6.8596e-05 0.0128328 0.0
0.2022 -0.0120185 0.0
0.194347 -0.0101049 0.0
0 0 0.0
0.084654 -0.00169438 0.0
0.14255 -0.00468089 0.0
0.177395 -0.00783231 0.0
0 0 0.0
0 0 0.0
-0.00435301 0.00665548 0.0
-0.00442089 0.00419617 0.0
-0.00517335 0.00251951 0.0
0 0 0.0
0.0614497 -0.000449625 0.0
0.151674 -0.00238097 0.0
0.113808 -0.00141995 0.0
0.174489 -0.00368454 0.0
0.205173 -0.00640402 0.0
0.205594 -0.00909283 0.0
0.206213 -0.0110107 0.0
0.198938 -0.00398279 0.0
0.202504 -0.00480436 0.0
0.194164 -0.00463771 0.0
0.187362 -0.0042028 0.0
0.20584 -0.013328 0.0
0.205955 -0.0127865 0.0