# vtk DataFile Version 3.0
Mesh NS-CD Problem
ASCII
DATASET UNSTRUCTURED_GRID
POINTS 10839 float
-2 0.3 0.0
-2 0.4 0.0
-2 0.35 0.0
-2 0.45 0.0
-2 0.5 0.0
-2 0.55 0.0
-2 0 0.0
-2 0.05 0.0
-2 0.85 0.0
-2 0.9 0.0
-2 0.1 0.0
-2 0.15 0.0
-2 0.25 0.0
-2 0.2 0.0
-1.96653 0.266667 0.0
-1.96524 0.415385 0.0
-1.96485 0.315 0.0
-1.96348 0.363636 0.0
-1.96414 0.464286 0.0
-2 0.6 0.0
-1.96538 0.584615 0.0
-1.96538 0.538462 0.0
-1.94979 0 0.0
-1.96653 0.0666666 0.0
-1.93306 0.0333333 0.0
-2 0.8 0.0
-2 0.75 0.0
-2 0.7 0.0
-2 0.65 0.0
-1.96249 0.7375 0.0
-1.96666 0.833333 0.0
-2 1 0.0
-2 0.95 0.0
-1.96249 0.8875 0.0
-1.96666 0.933333 0.0
-1.96234 0.1125 0.0
-1.96653 0.166667 0.0
-1.93724 0.225 0.0
-1.92971 0.28 0.0
-1.93048 0.380769 0.0
-1.93048 0.423077 0.0
-1.89958 0.3375 0.0
-1.9292 0.484203 0.0
-1.92117 0.530907 0.0
-1.96363 0.636364 0.0
-1.93076 0.576923 0.0
-1.89958 0 0.0
-1.88703 0.0375 0.0
-1.90963 0.08 0.0
-1.86611 0.0666666 0.0
-1.93749 0.775 0.0
-1.93635 0.672727 0.0
-1.92999 0.72 0.0
-1.93332 0.866667 0.0
-1.92856 0.821429 0.0
-1.94999 1 0.0
-1.92499 0.9625 0.0
-1.92499 0.925 0.0
-1.89998 0.9 0.0
-1.89958 0.125 0.0
-1.92827 0.178571 0.0
-1.89958 0.233333 0.0
-1.89045 0.290909 0.0
-1.86096 0.311538 0.0
-1.89241 0.392857 0.0
-1.89334 0.448489 0.0
-1.85655 0.357143 0.0
-1.89614 0.653846 0.0
-1.89427 0.504121 0.0
-1.8952 0.559753 0.0
-1.89614 0.615385 0.0
-1.84937 0 0.0
-1.83264 0.0333333 0.0
-1.85655 0.107143 0.0
-1.81172 0.075 0.0
-1.89998 0.766667 0.0
-1.89089 0.709091 0.0
-1.87498 0.85 0.0
-1.85998 0.79 0.0
-1.88748 0.8125 0.0
-1.89998 1 0.0
-1.88748 0.9625 0.0
-1.86664 0.933333 0.0
-1.85712 0.892857 0.0
-1.87448 0.15 0.0
-1.86611 0.194444 0.0
-1.83264 0.133333 0.0
-1.83264 0.2625 0.0
-1.82068 0.321429 0.0
-1.85664 0.404762 0.0
-1.85674 0.452381 0.0
-1.85683 0.5 0.0
-1.81184 0.375 0.0
-1.85712 0.642857 0.0
-1.85693 0.547619 0.0
-1.85702 0.595238 0.0
-1.79917 0 0.0
-1.78482 0.0357143 0.0
-1.79917 0.116667 0.0
-1.76569 0.0666666 0.0
-1.85452 0.745455 0.0
-1.82689 0.692308 0.0
-1.81815 0.781818 0.0
-1.82497 0.825 0.0
-1.84997 1 0.0
-1.8333 0.958333 0.0
-1.81247 0.8875 0.0
-1.81247 0.925 0.0
-1.81742 0.218182 0.0
-1.82427 0.175 0.0
-1.77634 0.145455 0.0
-1.79144 0.242308 0.0
-1.78482 0.285714 0.0
-1.77469 0.332653 0.0
-1.81215 0.529762 0.0
-1.81194 0.422619 0.0
-1.81203 0.470238 0.0
-1.76714 0.392857 0.0
-1.81234 0.625 0.0
-1.79732 0.571429 0.0
-1.74896 0 0.0
-1.73222 0.0333333 0.0
-1.75398 0.105 0.0
-1.71883 0.07 0.0
-1.79227 0.730769 0.0
-1.78007 0.679121 0.0
-1.75765 0.769231 0.0
-1.78178 0.818182 0.0
-1.78996 0.86 0.0
-1.79996 1 0.0
-1.78568 0.964286 0.0
-1.76663 0.922222 0.0
-1.76569 0.1875 0.0
-1.73222 0.15 0.0
-1.74896 0.25 0.0
-1.73714 0.304762 0.0
-1.76743 0.537202 0.0
-1.72869 0.343878 0.0
-1.76732 0.485119 0.0
-1.76723 0.440476 0.0
-1.72243 0.410714 0.0
-1.76757 0.607143 0.0
-1.69875 0 0.0
-1.68369 0.035 0.0
-1.69875 0.1125 0.0
-1.66528 0.075 0.0
-1.74341 0.708974 0.0
-1.73324 0.665934 0.0
-1.70441 0.74478 0.0
-1.71423 0.785714 0.0
-1.72303 0.826923 0.0
-1.74541 0.854545 0.0
-1.74541 0.890909 0.0
-1.74996 1 0.0
-1.73745 0.9625 0.0
-1.71359 0.927273 0.0
-1.68716 0.153846 0.0
-1.7131 0.214286 0.0
-1.70725 0.275 0.0
-1.69712 0.321939 0.0
-1.72279 0.589286 0.0
-1.72261 0.5 0.0
-1.7227 0.544643 0.0
-1.6827 0.355102 0.0
-1.67773 0.428571 0.0
-1.70763 0.464286 0.0
-1.70369 0.62449 0.0
-1.64854 0 0.0
-1.63181 0.0375 0.0
-1.64137 0.142857 0.0
-1.61764 0.0769231 0.0
-1.69458 0.703846 0.0
-1.67471 0.657437 0.0
-1.66143 0.727637 0.0
-1.67125 0.768571 0.0
-1.67851 0.821429 0.0
-1.68841 0.861538 0.0
-1.70904 0.890909 0.0
-1.69995 1 0.0
-1.68176 0.963636 0.0
-1.67267 0.927273 0.0
-1.65427 0.187143 0.0
-1.66718 0.231429 0.0
-1.66554 0.3 0.0
-1.67802 0.571429 0.0
-1.67792 0.523809 0.0
-1.6367 0.366327 0.0
-1.63682 0.423469 0.0
-1.62568 0.502976 0.0
-1.6629 0.470238 0.0
-1.65254 0.618367 0.0
-1.6059 0.307143 0.0
-1.59833 0 0.0
-1.58288 0.0384615 0.0
-1.60563 0.169643 0.0
-1.58179 0.112271 0.0
-1.56964 0.0714286 0.0
-1.64574 0.690385 0.0
-1.62827 0.751429 0.0
-1.63371 0.791071 0.0
-1.64279 0.857143 0.0
-1.65378 0.896154 0.0
-1.64994 1 0.0
-1.6363 0.963636 0.0
-1.61916 0.930769 0.0
-1.61345 0.209107 0.0
-1.62126 0.248571 0.0
-1.56989 0.196429 0.0
-1.63324 0.553571 0.0
-1.58846 0.535714 0.0
-1.59408 0.361905 0.0
-1.59161 0.402211 0.0
-1.58832 0.464286 0.0
-1.61504 0.598581 0.0
-1.59683 0.64359 0.0
-1.57899 0.274107 0.0
-1.56176 0.322381 0.0
-1.54812 0 0.0
-1.53378 0.0357143 0.0
-1.54593 0.147619 0.0
-1.53385 0.0732143 0.0
-1.53393 0.110714 0.0
-1.58522 0.704286 0.0
-1.58709 0.745 0.0
-1.58896 0.785714 0.0
-1.60695 0.830357 0.0
-1.60707 0.892857 0.0
-1.59993 1 0.0
-1.58454 0.965385 0.0
-1.57135 0.928571 0.0
-1.55209 0.241071 0.0
-1.5291 0.198214 0.0
-1.56936 0.570918 0.0
-1.54369 0.517857 0.0
-1.5464 0.380952 0.0
-1.54564 0.427721 0.0
-1.54488 0.47449 0.0
-1.55026 0.606122 0.0
-1.54222 0.677143 0.0
-1.52943 0.282857 0.0
-1.52143 0.33619 0.0
-1.49792 0 0.0
-1.49802 0.05 0.0
-1.49822 0.15 0.0
-1.49312 0.1 0.0
-1.5423 0.717143 0.0
-1.54419 0.767857 0.0
-1.54727 0.819048 0.0
-1.57122 0.861905 0.0
-1.53553 0.914286 0.0
-1.54992 1 0.0
-1.53563 0.964286 0.0
-1.49842 0.25 0.0
-1.48831 0.2 0.0
-1.5214 0.558929 0.0
-1.49891 0.5 0.0
-1.49871 0.4 0.0
-1.47631 0.45 0.0
-1.49911 0.6 0.0
-1.49921 0.65 0.0
-1.49931 0.7 0.0
-1.48111 0.35 0.0
-1.48351 0.3 0.0
-1.44771 0 0.0
-1.44782 0.05 0.0
-1.44804 0.15 0.0
-1.44793 0.1 0.0
-1.49941 0.75 0.0
-1.49951 0.8 0.0
-1.49981 0.95 0.0
-1.49961 0.85 0.0
-1.49971 0.9 0.0
-1.49991 1 0.0
-1.44826 0.25 0.0
-1.43815 0.2 0.0
-1.47151 0.55 0.0
-1.44881 0.5 0.0
-1.44859 0.4 0.0
-1.42619 0.45 0.0
-1.44913 0.65 0.0
-1.44902 0.6 0.0
-1.44935 0.75 0.0
-1.44924 0.7 0.0
-1.43972 0.35 0.0
-1.43336 0.3 0.0
-1.3975 0 0.0
-1.39762 0.05 0.0
-1.39786 0.15 0.0
-1.39274 0.1 0.0
-1.44957 0.85 0.0
-1.44946 0.8 0.0
-1.4523 0.95 0.0
-1.44968 0.9 0.0
-1.4499 1 0.0
-1.3981 0.25 0.0
-1.38798 0.2 0.0
-1.42141 0.55 0.0
-1.3987 0.5 0.0
-1.39834 0.35 0.0
-1.37845 0.4 0.0
-1.37607 0.45 0.0
-1.40784 0.65 0.0
-1.39894 0.6 0.0
-1.41185 0.75 0.0
-1.39918 0.7 0.0
-1.38322 0.3 0.0
-1.34729 0 0.0
-1.34492 0.05 0.0
-1.34018 0.15 0.0
-1.34255 0.1 0.0
-1.40707 0.85 0.0
-1.39941 0.8 0.0
-1.39977 0.95 0.0
-1.39965 0.9 0.0
-1.39989 1 0.0
-1.33781 0.2 0.0
-1.33544 0.25 0.0
-1.37131 0.55 0.0
-1.34859 0.5 0.0
-1.33833 0.4 0.0
-1.3307 0.35 0.0
-1.32595 0.45 0.0
-1.34885 0.6 0.0
-1.36655 0.65 0.0
-1.36179 0.75 0.0
-1.34911 0.7 0.0
-1.33307 0.3 0.0
-1.29708 0 0.0
-1.29722 0.05 0.0
-1.2975 0.15 0.0
-1.29236 0.1 0.0
-1.35703 0.85 0.0
-1.34937 0.8 0.0
-1.34988 1 0.0
-1.34962 0.9 0.0
-1.35226 0.95 0.0
-1.28528 0.25 0.0
-1.28764 0.2 0.0
-1.28931 0.35 0.0
-1.32121 0.55 0.0
-1.29848 0.5 0.0
-1.28709 0.45 0.0
-1.2982 0.4 0.0
-1.29876 0.6 0.0
-1.31647 0.65 0.0
-1.29918 0.75 0.0
-1.29904 0.7 0.0
-1.28292 0.3 0.0
-1.24687 0 0.0
-1.24702 0.05 0.0
-1.24717 0.1 0.0
-1.24732 0.15 0.0
-1.29946 0.85 0.0
-1.29932 0.8 0.0
-1.29987 1 0.0
-1.29974 0.95 0.0
-1.30462 0.9 0.0
-1.24762 0.25 0.0
-1.23747 0.2 0.0
-1.24792 0.35 0.0
-1.22807 0.4 0.0
-1.27111 0.55 0.0
-1.24837 0.5 0.0
-1.24822 0.45 0.0
-1.24867 0.6 0.0
-1.26639 0.65 0.0
-1.26167 0.75 0.0
-1.24897 0.7 0.0
-1.23277 0.3 0.0
-1.19667 0 0.0
-1.19683 0.05 0.0
-1.18964 0.15 0.0
-1.19198 0.1 0.0
-1.25695 0.85 0.0
-1.24927 0.8 0.0
-1.25223 0.95 0.0
-1.24987 1 0.0
-1.24957 0.9 0.0
-1.1873 0.2 0.0
-1.18496 0.25 0.0
-1.18028 0.35 0.0
-1.17794 0.4 0.0
-1.1981 0.45 0.0
-1.19842 0.55 0.0
-1.19826 0.5 0.0
-1.19858 0.6 0.0
-1.19874 0.65 0.0
-1.19906 0.75 0.0
-1.1989 0.7 0.0
-1.18262 0.3 0.0
-1.14646 0 0.0
-1.14663 0.05 0.0
-1.1418 0.1 0.0
-1.13713 0.2 0.0
-1.14697 0.15 0.0
-1.20691 0.85 0.0
-1.20926 0.8 0.0
-1.20221 0.95 0.0
-1.19986 1 0.0
-1.20456 0.9 0.0
-1.13997 0.3 0.0
-1.14731 0.25 0.0
-1.13781 0.4 0.0
-1.13014 0.35 0.0
-1.12548 0.45 0.0
-1.14815 0.5 0.0
-1.15962 0.55 0.0
-1.14849 0.6 0.0
-1.15745 0.65 0.0
-1.16155 0.75 0.0
-1.14917 0.8 0.0
-1.14883 0.7 0.0
-1.09625 0 0.0
-1.09661 0.1 0.0
-1.09393 0.05 0.0
-1.09697 0.2 0.0
-1.08929 0.15 0.0
-1.15687 0.85 0.0
-1.14985 1 0.0
-1.15219 0.95 0.0
-1.14951 0.9 0.0
-1.09733 0.3 0.0
-1.08465 0.25 0.0
-1.09769 0.4 0.0
-1.08 0.35 0.0
-1.08661 0.45 0.0
-1.09804 0.5 0.0
-1.12082 0.55 0.0
-1.10916 0.8 0.0
-1.10629 0.7 0.0
-1.0984 0.6 0.0
-1.11616 0.65 0.0
-1.11149 0.75 0.0
-1.04604 0 0.0
-1.04623 0.05 0.0
-1.04642 0.1 0.0
-1.0468 0.2 0.0
-1.03911 0.15 0.0
-1.09948 0.9 0.0
-1.0993 0.85 0.0
-1.09984 1 0.0
-1.09966 0.95 0.0
-1.04718 0.3 0.0
-1.03449 0.25 0.0
-1.04756 0.4 0.0
-1.02986 0.35 0.0
-1.04775 0.45 0.0
-1.04794 0.5 0.0
-1.04813 0.55 0.0
-1.05911 0.8 0.0
-1.04831 0.6 0.0
-1.06376 0.7 0.0
-1.0485 0.65 0.0
-1.04888 0.75 0.0
-0.995833 0 0.0
-0.991231 0.1 0.0
-0.996033 0.05 0.0
-0.986629 0.2 0.0
-0.98893 0.15 0.0
-1.05447 0.9 0.0
-1.04926 0.85 0.0
-1.04983 1 0.0
-1.04964 0.95 0.0
-0.984328 0.25 0.0
-0.99703 0.3 0.0
-0.997429 0.4 0.0
-0.997628 0.45 0.0
-0.979726 0.35 0.0
-0.997827 0.5 0.0
-0.998027 0.55 0.0
-0.998226 0.6 0.0
-0.961416 0.475 0.0
-1.00907 0.8 0.0
-0.998426 0.65 0.0
-0.998625 0.7 0.0
-1.01138 0.75 0.0
-0.945625 0 0.0
-0.946044 0.1 0.0
-0.943334 0.05 0.0
-0.946463 0.2 0.0
-0.938752 0.15 0.0
-1.00444 0.9 0.0
-1.00675 0.85 0.0
-0.999821 1 0.0
-1.00213 0.95 0.0
-0.93417 0.25 0.0
-0.946881 0.3 0.0
-0.9473 0.4 0.0
-0.929588 0.35 0.0
-0.925005 0.45 0.0
-0.960371 0.525 0.0
-0.959325 0.575 0.0
-0.958279 0.625 0.0
-0.922714 0.5 0.0
-0.959017 0.8 0.0
-0.957233 0.675 0.0
-0.952999 0.7125 0.0
-0.948766 0.75 0.0
-0.895417 0 0.0
-0.895855 0.1 0.0
-0.893136 0.05 0.0
-0.896294 0.2 0.0
-0.888573 0.15 0.0
-0.949184 0.85 0.0
-0.954415 0.9 0.0
-0.949812 1 0.0
-0.949603 0.95 0.0
-0.884011 0.25 0.0
-0.896733 0.3 0.0
-0.874887 0.45 0.0
-0.879449 0.35 0.0
-0.897171 0.4 0.0
-0.920423 0.55 0.0
-0.918132 0.6 0.0
-0.915841 0.65 0.0
-0.872606 0.5 0.0
-0.908968 0.8 0.0
-0.91355 0.7 0.0
-0.898707 0.75 0.0
-0.845208 0 0.0
-0.845438 0.05 0.0
-0.845667 0.1 0.0
-0.845896 0.15 0.0
-0.833853 0.25 0.0
-0.846126 0.2 0.0
-0.899146 0.85 0.0
-0.904386 0.9 0.0
-0.899584 0.95 0.0
-0.899804 1 0.0
-0.838062 0.35 0.0
[...]
POINT_DATA 10839
VECTORS Velocity float
0.21 0 0.0
0.24 0 0.0
0.2275 0 0.0
0.2475 0 0.0
0.25 0 0.0
0.2475 0 0.0
0 0 0.0
0.0475 0 0.0
0.1275 0 0.0
0.09 0 0.0
0.09 0 0.0
0.1275 0 0.0
0.1875 0 0.0
0.16 0 0.0
0.195557 -2.4365e-05 0.0
0.242841 -3.32313e-05 0.0
0.215776 -2.89983e-05 0.0
0.231406 -3.26884e-05 0.0
0.248725 -3.5381e-05 0.0
0.24 0 0.0
0.24284 -3.31569e-05 0.0
0.24852 -3.40733e-05 0.0
0 0 0.0
0.0622239 -4.25065e-06 0.0
0.032227 -2.8101e-06 0.0
0.16 0 0.0
0.1875 0 0.0
0.21 0 0.0
0.2275 0 0.0
0.193592 -2.73493e-05 0.0
0.138887 -1.51901e-05 0.0
0 0 0.0
0.0475 0 0.0
0.0998415 -1.05539e-05 0.0
0.0622205 -4.29833e-06 0.0
0.0998462 -1.10275e-05 0.0
0.138891 -1.53252e-05 0.0
0.17438 -3.84045e-05 0.0
0.201606 -5.26026e-05 0.0
0.235787 -6.42197e-05 0.0
0.244085 -6.71962e-05 0.0
0.223602 -8.60928e-05 0.0
0.249751 -7.02052e-05 0.0
0.249044 -7.82304e-05 0.0
0.231404 -3.3219e-05 0.0
0.244081 -6.64013e-05 0.0
0 0 0.0
0.0361083 -5.43729e-06 0.0
0.0736129 -1.51966e-05 0.0
0.0622495 -1.66565e-05 0.0
0.17437 -3.78402e-05 0.0
0.220162 -5.25808e-05 0.0
0.201594 -5.26812e-05 0.0
0.115548 -2.26953e-05 0.0
0.146676 -3.51616e-05 0.0
0 0 0.0
0.0360873 -3.66239e-06 0.0
0.0693659 -1.18806e-05 0.0
0.0899832 -2.35798e-05 0.0
0.109391 -3.18954e-05 0.0
0.146692 -3.44812e-05 0.0
0.178902 -6.44054e-05 0.0
0.206293 -8.42141e-05 0.0
0.214501 -0.000113497 0.0
0.238527 -0.000100674 0.0
0.24735 -0.000104833 0.0
0.229607 -0.000128157 0.0
0.226323 -9.04627e-05 0.0
0.249983 -0.000105352 0.0
0.246426 -0.000102496 0.0
0.23668 -9.65023e-05 0.0
0 0 0.0
0.032251 -6.14937e-06 0.0
0.0956971 -3.62331e-05 0.0
0.06943 -2.73143e-05 0.0
0.178876 -6.34261e-05 0.0
0.206269 -8.48518e-05 0.0
0.127476 -4.89088e-05 0.0
0.165873 -8.02822e-05 0.0
0.152325 -5.74839e-05 0.0
0 0 0.0
0.0360794 -5.26629e-06 0.0
0.0621954 -1.648e-05 0.0
0.0956295 -3.69187e-05 0.0
0.127525 -4.93804e-05 0.0
0.156661 -7.1739e-05 0.0
0.115601 -5.67096e-05 0.0
0.193627 -0.000118339 0.0
0.218142 -0.000149762 0.0
0.24094 -0.000136552 0.0
0.247738 -0.000141618 0.0
0.25 -0.000143165 0.0
0.234398 -0.000173384 0.0
0.229576 -0.000126389 0.0
0.247727 -0.000141307 0.0
0.240919 -0.000136314 0.0
0 0 0.0
0.0344879 -8.52087e-06 0.0
0.103122 -5.57345e-05 0.0
0.0623041 -2.7679e-05 0.0
0.189727 -0.00010056 0.0
0.212988 -0.000140491 0.0
0.170533 -0.000108921 0.0
0.144329 -8.08376e-05 0.0
0 0 0.0
0.0398976 -9.07145e-06 0.0
0.0997855 -5.06587e-05 0.0
0.0693205 -2.68664e-05 0.0
0.170625 -0.000109043 0.0
0.144422 -8.25837e-05 0.0
0.124378 -8.37716e-05 0.0
0.18365 -0.000137873 0.0
0.204132 -0.000165082 0.0
0.222039 -0.000194387 0.0
0.249109 -0.000188004 0.0
0.244027 -0.000182989 0.0
0.24912 -0.000188011 0.0
0.238551 -0.000220803 0.0
0.234352 -0.000172371 0.0
0.244882 -0.000198204 0.0
0 0 0.0
0.0322927 -9.02901e-06 0.0
0.0940754 -5.86109e-05 0.0
0.0652188 -3.50369e-05 0.0
0.196695 -0.000150775 0.0
0.217871 -0.000185266 0.0
0.177437 -0.000153067 0.0
0.148689 -0.000106781 0.0
0.120328 -7.47436e-05 0.0
0 0 0.0
0.0343902 -8.60433e-06 0.0
0.0716431 -3.51433e-05 0.0
0.152425 -0.000119773 0.0
0.127616 -0.000104071 0.0
0.187579 -0.000171044 0.0
0.211952 -0.000213078 0.0
0.248605 -0.000233448 0.0
0.225686 -0.000241428 0.0
0.249783 -0.000235139 0.0
0.246474 -0.000231175 0.0
0.242065 -0.000270606 0.0
0.23849 -0.000220191 0.0
0 0 0.0
0.0338754 -1.13241e-05 0.0
0.0999949 -7.83376e-05 0.0
0.0695471 -4.66825e-05 0.0
0.206259 -0.000199497 0.0
0.222404 -0.000232575 0.0
0.189974 -0.000207357 0.0
0.168252 -0.00016745 0.0
0.143002 -0.000128432 0.0
0.124193 -9.47477e-05 0.0
0.0970827 -6.36347e-05 0.0
0 0 0.0
0.03602 -1.09657e-05 0.0
0.0673134 -3.76811e-05 0.0
0.130336 -0.000125829 0.0
0.168484 -0.000168246 0.0
0.199474 -0.000219509 0.0
0.218379 -0.000257639 0.0
0.241992 -0.000271279 0.0
0.25 -0.000283172 0.0
0.247988 -0.000279872 0.0
0.229082 -0.000290741 0.0
0.244938 -0.000322334 0.0
0.248741 -0.000297172 0.0
0.234444 -0.000277981 0.0
0 0 0.0
0.0362342 -1.46093e-05 0.0
0.122661 -0.000128961 0.0
0.071232 -5.52491e-05 0.0
0.208348 -0.000244089 0.0
0.225125 -0.000290542 0.0
0.198046 -0.00025348 0.0
0.177723 -0.000209887 0.0
0.146524 -0.000154758 0.0
0.11913 -0.000108101 0.0
0.0970494 -7.22161e-05 0.0
0 0 0.0
0.0349375 -1.22842e-05 0.0
0.0672757 -4.24454e-05 0.0
0.152303 -0.000175949 0.0
0.178019 -0.000214827 0.0
0.210117 -0.000271783 0.0
0.244858 -0.000322261 0.0
0.24942 -0.000331056 0.0
0.232227 -0.000342106 0.0
0.244198 -0.000366802 0.0
0.249988 -0.000391537 0.0
0.249132 -0.000347866 0.0
0.235912 -0.000333021 0.0
0.212965 -0.000331987 0.0
0 0 0.0
0.0371635 -1.72199e-05 0.0
0.141113 -0.000179559 0.0
0.0999613 -0.000108583 0.0
0.0666031 -5.38631e-05 0.0
0.213627 -0.000297082 0.0
0.186605 -0.000258657 0.0
0.165082 -0.00021049 0.0
0.122238 -0.000129692 0.0
0.0928634 -7.92477e-05 0.0
0 0 0.0
0.0349075 -1.37227e-05 0.0
0.0642239 -4.50957e-05 0.0
0.1656 -0.000224997 0.0
0.18697 -0.000264418 0.0
0.158127 -0.000235454 0.0
0.247091 -0.000376705 0.0
0.248691 -0.000433045 0.0
0.231053 -0.000384221 0.0
0.240527 -0.000410048 0.0
0.248758 -0.000432668 0.0
0.240202 -0.000383197 0.0
0.229254 -0.000376531 0.0
0.199185 -0.000325036 0.0
0.218636 -0.000388485 0.0
0 0 0.0
0.0346516 -1.69007e-05 0.0
0.126174 -0.000174557 0.0
0.0681823 -6.08817e-05 0.0
0.0988244 -0.000118276 0.0
0.20808 -0.000339892 0.0
0.189756 -0.00029636 0.0
0.168122 -0.000246004 0.0
0.140616 -0.000178231 0.0
0.0954054 -9.43064e-05 0.0
0 0 0.0
0.0332511 -1.40502e-05 0.0
0.0660524 -5.37134e-05 0.0
0.183227 -0.000307146 0.0
0.159267 -0.000263534 0.0
0.244897 -0.000446499 0.0
0.24966 -0.000490122 0.0
0.235963 -0.000449627 0.0
0.244859 -0.000475243 0.0
0.249378 -0.000488929 0.0
0.238619 -0.000452121 0.0
0.218417 -0.000408683 0.0
0.203108 -0.000379232 0.0
0.223373 -0.000444169 0.0
0 0 0.0
0.0478098 -3.3742e-05 0.0
0.127927 -0.000199043 0.0
0.0904296 -0.000111078 0.0
0.202605 -0.000365389 0.0
0.177962 -0.000300569 0.0
0.147883 -0.000225626 0.0
0.118715 -0.000147976 0.0
0.0780224 -7.91991e-05 0.0
0 0 0.0
0.0342288 -1.65598e-05 0.0
0.187836 -0.000363655 0.0
0.160406 -0.000293243 0.0
0.246451 -0.000510204 0.0
0.25 -0.000549689 0.0
0.240141 -0.000519065 0.0
0.247578 -0.00057221 0.0
0.239858 -0.000518685 0.0
0.227289 -0.000480282 0.0
0.209725 -0.000427346 0.0
0.227727 -0.000504041 0.0
0.210294 -0.000445224 0.0
0 0 0.0
0.047874 -3.76436e-05 0.0
0.128023 -0.000222218 0.0
0.0905128 -0.000122145 0.0
0.187165 -0.000361821 0.0
0.159613 -0.000283701 0.0
0.0471942 -3.30926e-05 0.0
0.127078 -0.000196362 0.0
0.0895834 -0.000108779 0.0
0 0 0.0
0.187913 -0.000408648 0.0
0.160498 -0.00032821 0.0
0.247419 -0.00057875 0.0
0.249999 -0.000619271 0.0
0.240174 -0.00058514 0.0
0.247595 -0.000643231 0.0
0.227242 -0.000540718 0.0
0.239825 -0.000584018 0.0
0.187088 -0.000406451 0.0
0.209662 -0.000480787 0.0
0.227768 -0.000553283 0.0
0.21036 -0.000500431 0.0
0 0 0.0
0.0479448 -4.12747e-05 0.0
0.12813 -0.000247094 0.0
0.0906256 -0.000136996 0.0
0.126981 -0.000220065 0.0
0.159525 -0.000318323 0.0
0.0471341 -3.67015e-05 0.0
0.0894924 -0.000120912 0.0
0 0 0.0
0.188001 -0.000456353 0.0
0.160601 -0.000365888 0.0
0.247401 -0.000649523 0.0
0.249999 -0.000693734 0.0
0.227813 -0.000606897 0.0
0.240226 -0.000684273 0.0
0.247614 -0.000719878 0.0
0.227196 -0.000591939 0.0
0.239788 -0.000654174 0.0
0.187024 -0.000440775 0.0
0.20959 -0.000537849 0.0
0.210434 -0.000559407 0.0
0 0 0.0
0.0480279 -4.59041e-05 0.0
0.128269 -0.000277974 0.0
0.0907406 -0.000151342 0.0
0.126891 -0.000240381 0.0
0.159424 -0.00035446 0.0
0.0470612 -4.07699e-05 0.0
0.0893917 -0.000133489 0.0
0 0 0.0
0.160715 -0.000405915 0.0
0.188125 -0.000520297 0.0
0.247381 -0.000725414 0.0
0.249998 -0.000773711 0.0
0.240261 -0.000747264 0.0
0.227898 -0.000701952 0.0
0.247636 -0.000801205 0.0
0.239745 -0.000728947 0.0
0.227147 -0.000647876 0.0
0.186929 -0.000490277 0.0
0.209509 -0.00059852 0.0
0.210517 -0.000623249 0.0
0 0 0.0
0.0481115 -5.06731e-05 0.0
0.128385 -0.000303156 0.0
0.0908676 -0.000167017 0.0
0.126775 -0.000266027 0.0
0.159313 -0.000393537 0.0
0 0 0.0
0.0892792 -0.000147654 0.0
0.0469876 -4.48019e-05 0.0
0.188237 -0.000578847 0.0
0.160844 -0.000449994 0.0
0.227957 -0.000765496 0.0
0.247358 -0.00080777 0.0
0.249998 -0.000860444 0.0
0.247654 -0.0008699 0.0
0.240299 -0.000813185 0.0
0.239699 -0.000810046 0.0
0.22708 -0.000720375 0.0
0.186795 -0.000557092 0.0
0.209419 -0.000664943 0.0
0.21061 -0.000691536 0.0
0 0 0.0
0.0482066 -5.58829e-05 0.0
0.0909934 -0.00018204 0.0
0.128533 -0.000334518 0.0
0.126624 -0.000298017 0.0
0.159188 -0.000435576 0.0
0 0 0.0
0.0468993 -4.92793e-05 0.0
0.0891689 -0.000160713 0.0
0.188331 -0.000624476 0.0
0.160987 -0.000498005 0.0
0.228019 -0.000833822 0.0
0.240371 -0.000939753 0.0
0.247333 -0.000897168 0.0
0.249997 -0.000954002 0.0
0.247675 -0.000942273 0.0
0.239646 -0.00089789 0.0
0.227006 -0.000799102 0.0
0.186705 -0.000601342 0.0
0.209319 -0.000735769 0.0
0.210714 -0.000766561 0.0
0 0 0.0
0.0483125 -6.13778e-05 0.0
0.128724 -0.00037552 0.0
0.0911635 -0.000203386 0.0
0.1265 -0.000323998 0.0
0.15905 -0.000481143 0.0
0.0468112 -5.35312e-05 0.0
0 0 0.0
0.0890204 -0.000178389 0.0
0.161145 -0.000550406 0.0
0.188501 -0.000707304 0.0
0.228137 -0.000956118 0.0
0.240432 -0.00104219 0.0
0.247702 -0.00104434 0.0
0.24729 -0.00103803 0.0
0.249996 -0.00105774 0.0
0.239587 -0.000995628 0.0
0.226893 -0.00091417 0.0
0.186539 -0.000680206 0.0
0.209207 -0.000814241 0.0
0.210829 -0.000847922 0.0
0 0 0.0
0.0484279 -6.73055e-05 0.0
0.0913342 -0.000223061 0.0
0.16132 -0.000606049 0.0
0.12888 -0.000407302 0.0
0.12634 -0.000356854 0.0
0.158928 -0.000520449 0.0
0.0467087 -5.91521e-05 0.0
0 0 0.0
0.0888844 -0.000194632 0.0
0.210937 -0.000923577 0.0
0.188618 -0.000763819 0.0
0.240484 -0.00112886 0.0
0.228235 -0.00106024 0.0
0.247749 -0.00120618 0.0
0.249995 -0.00116938 0.0
0.247264 -0.0011221 0.0
0.239522 -0.00110006 0.0
0.226814 -0.000992236 0.0
0.186427 -0.000732371 0.0
0.158727 -0.000585444 0.0
0.209083 -0.000898262 0.0
0 0 0.0
0.0915052 -0.000243808 0.0
0.0485639 -7.47892e-05 0.0
0.161474 -0.000657246 0.0
0.129112 -0.000457173 0.0
0.126164 -0.000393339 0.0
0 0 0.0
0.0465963 -6.50656e-05 0.0
0.0887033 -0.000216216 0.0
0.211056 -0.00100413 0.0
0.188828 -0.000866789 0.0
0.24054 -0.00122234 0.0
0.228344 -0.00117317 0.0
0.247775 -0.00130611 0.0
0.249991 -0.00129283 0.0
0.247236 -0.00121463 0.0
0.158578 -0.000630443 0.0
0.208967 -0.000975744 0.0
0.239448 -0.00121319 0.0
0.226728 -0.00107726 0.0
0.186266 -0.000808008 0.0
0 0 0.0
0.0486975 -8.14905e-05 0.0
0.0917097 -0.00026779 0.0
0.161687 -0.000724606 0.0
0.12934 -0.000504334 0.0
0.0885198 -0.000237342 0.0
0.125939 -0.000439422 0.0
0 0 0.0
0.0464668 -7.20648e-05 0.0
0.211207 -0.00110968 0.0
0.18902 -0.000958609 0.0
0.240617 -0.00135084 0.0
0.228463 -0.00129791 0.0
0.247805 -0.00141316 0.0
0.24999 -0.00142927 0.0
0.247175 -0.00139896 0.0
0.158376 -0.000693895 0.0
0.239368 -0.00133943 0.0
0.208841 -0.00105703 0.0
0.226574 -0.00123044 0.0
0.18604 -0.000914759 0.0
0 0 0.0
0.0919609 -0.000297666 0.0
0.0488515 -8.93985e-05 0.0
0.161969 -0.000815242 0.0
0.12959 -0.000556274 0.0
0.0883398 -0.000259088 0.0
0.125721 -0.000485164 0.0
0 0 0.0
0.0463291 -7.96072e-05 0.0
0.189231 -0.00106133 0.0
0.211377 -0.00122768 0.0
0.240703 -0.00149508 0.0
0.247846 -0.00155887 0.0
0.228595 -0.00143525 0.0
0.249985 -0.00157565 0.0
0.247129 -0.00154694 0.0
0.239279 -0.00147483 0.0
0.249554 -0.00169161 0.0
0.158153 -0.00076363 0.0
0.226442 -0.00135683 0.0
0.208626 -0.0011981 0.0
0.18589 -0.000983235 0.0
0 0 0.0
0.0921912 -0.000325067 0.0
0.0490323 -9.92547e-05 0.0
0.162181 -0.000884326 0.0
0.129868 -0.000613915 0.0
0.0881208 -0.0002856 0.0
0.125519 -0.000527164 0.0
0 0 0.0
0.0461865 -8.763e-05 0.0
0.189466 -0.00117458 0.0
0.211564 -0.00135906 0.0
0.240791 -0.00165108 0.0
0.228742 -0.00159029 0.0
0.247908 -0.00180305 0.0
0.249157 -0.00168823 0.0
0.243766 -0.00163583 0.0
0.233385 -0.00153488 0.0
0.249976 -0.00182943 0.0
0.157909 -0.000840052 0.0
0.218021 -0.00138982 0.0
0.203217 -0.00125786 0.0
0.185618 -0.00110616 0.0
0 0 0.0
0.0924676 -0.000358281 0.0
0.0492192 -0.000108457 0.0
0.162469 -0.000979416 0.0
0.130177 -0.000679294 0.0
0.12522 -0.000589356 0.0
0.087879 -0.000315501 0.0
0 0 0.0
0.0460131 -9.67122e-05 0.0
0.189727 -0.00130242 0.0
0.211771 -0.00150596 0.0
0.247952 -0.0019905 0.0
0.228902 -0.00176139 0.0
0.240896 -0.00182787 0.0
0.247041 -0.00180223 0.0
0.239112 -0.00172173 0.0
0.226194 -0.00159024 0.0
0.249962 -0.0020188 0.0
0.157639 -0.000924879 0.0
0.2083 -0.00140918 0.0
0.185372 -0.00121645 0.0
0 0 0.0
0.0494162 -0.000118654 0.0
0.092775 -0.000396845 0.0
0.130466 -0.000740989 0.0
0.190015 -0.0014442 0.0
0.162792 -0.00108675 0.0
0.124931 -0.000648959 0.0
0.0876124 -0.000348656 0.0
0.0458278 -0.000107136 0.0
0 0 0.0
0.229046 -0.00191912 0.0
0.212 -0.00167303 0.0
0.247992 -0.00215361 0.0
0.241003 -0.0020267 0.0
0.226022 -0.00174706 0.0
0.246971 -0.00198543 0.0
0.238987 -0.00189449 0.0
0.249949 -0.00222775 0.0
0.185107 -0.0013336 0.0
0.157284 -0.0010326 0.0
0.208009 -0.00159063 0.0
0 0 0.0
0.0496446 -0.00013202 0.0
0.0931544 -0.000445142 0.0
0.130842 -0.000822706 0.0
0.190252 -0.00156828 0.0
0.163225 -0.00124055 0.0
0.124617 -0.00071258 0.0
0.0872911 -0.000388084 0.0
0.0456253 -0.000118094 0.0
0 0 0.0
0.124271 -0.00078268 0.0
0.2292 -0.00208599 0.0
0.212332 -0.00192568 0.0
0.241169 -0.00234438 0.0
0.24803 -0.00232676 0.0
0.22576 -0.00197967 0.0
0.238853 -0.00208121 0.0
0.246895 -0.00218858 0.0
0.249924 -0.0024587 0.0
0.184815 -0.00145982 0.0
0.156956 -0.00113449 0.0
0.20776 -0.00174631 0.0
0 0 0.0
0.0498984 -0.000146614 0.0
0.0935421 -0.000497402 0.0
0.131262 -0.000919767 0.0
0.190601 -0.00174686 0.0
0.163637 -0.00138884 0.0
0.0453974 -0.000131748 0.0
0.086964 -0.000428263 0.0
0 0 0.0
0.123955 -0.000842307 0.0
0.229403 -0.00232372 0.0
0.212621 -0.00214911 0.0
0.241298 -0.00260173 0.0
0.248076 -0.00257829 0.0
0.225575 -0.00213708 0.0
0.238701 -0.00228487 0.0
0.249895 -0.00271514 0.0
0.24676 -0.00251677 0.0
0.184576 -0.00155718 0.0
0.156598 -0.00123912 0.0
0.207485 -0.00190798 0.0
0 0 0.0
0.0501799 -0.000163699 0.0
0.0939751 -0.000557506 0.0
0.131806 -0.00104968 0.0
0.191084 -0.00201023 0.0
0.212935 -0.00240597 0.0
0.164092 -0.00156233 0.0
0.0451641 -0.000144155 0.0
0.0866105 -0.000469193 0.0
0 0 0.0
0.123553 -0.000916386 0.0
0.229701 -0.0026843 0.0
0.241405 -0.00283564 0.0
0.248123 -0.00285731 0.0
0.249861 -0.00292774 0.0
0.225378 -0.00229919 0.0
0.23852 -0.00251097 0.0
0.246644 -0.0027694 0.0
0.156209 -0.00134862 0.0
0.184233 -0.00169636 0.0
0.207179 -0.00208017 0.0
0 0 0.0
0.0505194 -0.000186199 0.0
0.0944688 -0.000633324 0.0
0.132347 -0.00119053 0.0
0.191412 -0.0021988 0.0
0.213276 -0.00269317 0.0
0.164603 -0.0017642 0.0
0.0448941 -0.000157405 0.0
0.086225 -0.000511255 0.0
0 0 0.0
0.155874 -0.00143055 0.0
0.0858112 -0.000550782 0.0
0.12305 -0.00100052 0.0
0.229944 -0.00301358 0.0
0.241512 -0.00308039 0.0
0.248177 -0.00331819 0.0
0.249824 -0.00315076 0.0
0.246542 -0.00298427 0.0
0.22511 -0.00250871 0.0
0.238236 -0.00285511 0.0
0.183756 -0.00187448 0.0
0.206894 -0.00223908 0.0
0.230159 -0.00330055 0.0
0 0 0.0
0.0508857 -0.000212301 0.0
0.132958 -0.00135897 0.0
0.0950286 -0.000725638 0.0
0.213654 -0.00303385 0.0
0.192005 -0.00255672 0.0
0.165172 -0.0020015 0.0
0.0445883 -0.000170537 0.0
0 0 0.0
0.183438 -0.00198831 0.0
0.155421 -0.00154003 0.0
0.122572 -0.00107491 0.0
0.0442672 -0.00018616 0.0
0.0853635 -0.00059148 0.0
0.241655 -0.00343396 0.0
0.248197 -0.00360024 0.0
0.24975 -0.00348018 0.0
0.249683 -0.00375448 0.0
0.24642 -0.00321062 0.0
0.224802 -0.00273643 0.0
0.237981 -0.00312616 0.0
0.206579 -0.00239282 0.0
0.230372 -0.00362321 0.0
0.0512877 -0.000243717 0.0
0 0 0.0
0.133539 -0.00152417 0.0
0.095666 -0.000833821 0.0
0.214057 -0.00342066 0.0
0.192402 -0.00281151 0.0
0.16581 -0.00228312 0.0
0 0 0.0
0.182983 -0.00213156 0.0
0.154826 -0.00166305 0.0
0.122145 -0.00112615 0.0
0.0439471 -0.000197819 0.0
0.08489 -0.000628276 0.0
0.241844 -0.00400758 0.0
0.248212 -0.00389805 0.0
0.249594 -0.00404223 0.0
0.24615 -0.00367158 0.0
0.22446 -0.00297213 0.0
0.2377 -0.00341506 0.0
0.20604 -0.00264748 0.0
0.230659 -0.00407282 0.0
0 0 0.0
0.0517707 -0.000284506 0.0
0.134304 -0.00175627 0.0
0.0963289 -0.000953779 0.0
0.16652 -0.00260932 0.0
0.214494 -0.00387071 0.0
0.193126 -0.0032948 0.0
0 0 0.0
0 0 0.0
0.182474 -0.00227903 0.0
0.154282 -0.00176416 0.0
0.121608 -0.00118765 0.0
0.0843926 -0.000660996 0.0
0.0435909 -0.000208188 0.0
0.241974 -0.0044786 0.0
0.248203 -0.00433335 0.0
0.237435 -0.00366231 0.0
0.249451 -0.00446272 0.0
0.245905 -0.00403664 0.0
0.224062 -0.00322613 0.0
0.20556 -0.00284646 0.0
0.242066 -0.0049045 0.0
0.230935 -0.00458366 0.0
0.0523293 -0.00033037 0.0
0.0971635 -0.00110474 0.0
0.135179 -0.00203574 0.0
0.167153 -0.00292129 0.0
0.214965 -0.00438162 0.0
0.1936 -0.00364871 0.0
0 0 0.0
0 0 0.0
0.153817 -0.00183008 0.0
0.181769 -0.00245086 0.0
0.0839264 -0.000682361 0.0
0.120952 -0.00124622 0.0
0.0432133 -0.000219281 0.0
0.248155 -0.00503348 0.0
0.249253 -0.00493285 0.0
0.205028 -0.00304851 0.0
0.237134 -0.00391684 0.0
0.245688 -0.00434213 0.0
0.223439 -0.00358237 0.0
0.242152 -0.00535124 0.0
0.231341 -0.00538338 0.0
0.215459 -0.00497291 0.0
0.0530256 -0.000389931 0.0
0.0981326 -0.0012958 0.0
0.136335 -0.00241801 0.0
0.168026 -0.0033561 0.0
0.194468 -0.0043141 0.0
0 0 0.0
0 0 0.0
0.153064 -0.00192495 0.0
0.181131 -0.00259173 0.0
0.0833433 -0.000703777 0.0
0.120351 -0.00128719 0.0
0.0428113 -0.000226876 0.0
0.245432 -0.00466747 0.0
0.249008 -0.00543843 0.0
0.248058 -0.00560615 0.0
0.204424 -0.00325363 0.0
0.236707 -0.004264 0.0
0.222891 -0.00387447 0.0
0.180431 -0.00272451 0.0
0.242249 -0.00625875 0.0
0 0 0.0
0.231611 -0.00608661 0.0
0.195233 -0.00495047 0.0
0.215975 -0.00564062 0.0
0.0537743 -0.000459624 0.0
0.137323 -0.00276337 0.0
0.0993878 -0.00155578 0.0
0.169201 -0.00400302 0.0
0 0 0.0
0 0 0.0
0 0 0.0
0 0 0.0
0 0 0.0
0.0424378 -0.000230658 0.0
0.119722 -0.00132115 0.0
0.152378 -0.00199868 0.0
0.0828447 -0.000719339 0.0
0.24504 -0.00510579 0.0
0.248689 -0.00600095 0.0
0.247926 -0.00623625 0.0
0.22238 -0.00410584 0.0
0.203739 -0.00346195 0.0
0.235972 -0.00478427 0.0
0.203093 -0.00363892 0.0
0.179851 -0.00281693 0.0
0.24226 -0.0070157 0.0
0.231883 -0.00685756 0.0
0 0 0.0
9.41062e-05 -4.02374e-05 0.0
0 0 0.0
-0.000304392 0.00160898 0.0
0.216521 -0.0064152 0.0
0.195858 -0.00548341 0.0
0.0547434 -0.000554387 0.0
0.138624 -0.00322643 0.0
0.100727 -0.00184205 0.0
0.170323 -0.0046446 0.0
0 0 0.0
0 0 0.0
0 0 0.0
-0.000219945 0.000814854 0.0
-6.4652e-06 -0.000137736 0.0
6.6106e-05 -8.42186e-05 0.0
0 0 0.0
0.0420312 -0.000235925 0.0
0.119169 -0.00134074 0.0
0.151642 -0.00206255 0.0
0.0822341 -0.000732699 0.0
0.244575 -0.00559298 0.0
0.24829 -0.00661525 0.0
0.247723 -0.0069277 0.0
0.221806 -0.00435705 0.0
0.235474 -0.00511749 0.0
0.202376 -0.00381321 0.0
0.178802 -0.00296938 0.0
0.242234 -0.00784612 0.0
0.235107 -0.00772396 0.0
0.22517 -0.00742011 0.0
0 0 0.0
0.000155336 -1.1317e-05 0.0
0 0 0.0
0 0 0.0
-0.00109529 0.00377286 0.0
-0.00102226 0.00238763 0.0
0.212392 -0.00697076 0.0
0.196731 -0.00629484 0.0
0.102132 -0.00215326 0.0
0.055795 -0.000670066 0.0
0.140107 -0.00378655 0.0
0.171554 -0.00539205 0.0
0 0 0.0
-0.000327342 0.00032717 0.0
-0.000668174 0.00115005 0.0
-0.00016898 7.64823e-05 0.0
-9.66618e-05 0.000124065 0.0
0 0 0.0
0.0416207 -0.000240028 0.0
0.118498 -0.00136039 0.0
0.150861 -0.00211306 0.0
0.0816651 -0.000741519 0.0
0.244012 -0.00611531 0.0
0.247802 -0.00728172 0.0
0.247441 -0.00768856 0.0
0.220723 -0.00479012 0.0
0.234909 -0.00545291 0.0
0.201434 -0.00403369 0.0
0.150029 -0.00217434 0.0
0.177861 -0.00309849 0.0
0.242161 -0.00856733 0.0
0.232264 -0.00836839 0.0
0.217464 -0.00799921 0.0
0 0 0.0
-7.49868e-06 9.11388e-05 0.0
0 0 0.0
0 0 0.0
0 0 0.0
0 0 0.0
-0.00181413 0.00255918 0.0
-0.000318668 0.00333084 0.0
-0.00114149 0.00499187 0.0
-0.00262995 0.00659745 0.0
-0.00216795 0.00440238 0.0
0 0 0.0
-8.10976e-05 0.0052818 0.0
0.197893 -0.00750842 0.0
0.172632 -0.00610576 0.0
0 0 0.0
0.0571906 -0.000834076 0.0
0.103938 -0.00258681 0.0
0.142072 -0.00461713 0.0
0 0 0.0
0 0 0.0
-0.0010388 0.00115671 0.0
-0.000735746 0.000635238 0.0