# vtk DataFile Version 3.0
Mesh NS-CD Problem
ASCII
DATASET UNSTRUCTURED_GRID
POINTS 10839 float
-2 0.3 0.0
-2 0.4 0.0
-2 0.35 0.0
-2 0.45 0.0
-2 0.5 0.0
-2 0.55 0.0
-2 0 0.0
-2 0.05 0.0
-2 0.85 0.0
-2 0.9 0.0
-2 0.1 0.0
-2 0.15 0.0
-2 0.25 0.0
-2 0.2 0.0
-1.96653 0.266667 0.0
-1.96524 0.415385 0.0
-1.96485 0.315 0.0
-1.96348 0.363636 0.0
-1.96414 0.464286 0.0
-2 0.6 0.0
-1.96538 0.584615 0.0
-1.96538 0.538462 0.0
-1.94979 0 0.0
-1.96653 0.0666666 0.0
-1.93306 0.0333333 0.0
-2 0.8 0.0
-2 0.75 0.0
-2 0.7 0.0
-2 0.65 0.0
-1.96249 0.7375 0.0
-1.96666 0.833333 0.0
-2 1 0.0
-2 0.95 0.0
-1.96249 0.8875 0.0
-1.96666 0.933333 0.0
-1.96234 0.1125 0.0
-1.96653 0.166667 0.0
-1.93724 0.225 0.0
-1.92971 0.28 0.0
-1.93048 0.380769 0.0
-1.93048 0.423077 0.0
-1.89958 0.3375 0.0
-1.9292 0.484203 0.0
-1.92117 0.530907 0.0
-1.96363 0.636364 0.0
-1.93076 0.576923 0.0
-1.89958 0 0.0
-1.88703 0.0375 0.0
-1.90963 0.08 0.0
-1.86611 0.0666666 0.0
-1.93749 0.775 0.0
-1.93635 0.672727 0.0
-1.92999 0.72 0.0
-1.93332 0.866667 0.0
-1.92856 0.821429 0.0
-1.94999 1 0.0
-1.92499 0.9625 0.0
-1.92499 0.925 0.0
-1.89998 0.9 0.0
-1.89958 0.125 0.0
-1.92827 0.178571 0.0
-1.89958 0.233333 0.0
-1.89045 0.290909 0.0
-1.86096 0.311538 0.0
-1.89241 0.392857 0.0
-1.89334 0.448489 0.0
-1.85655 0.357143 0.0
-1.89614 0.653846 0.0
-1.89427 0.504121 0.0
-1.8952 0.559753 0.0
-1.89614 0.615385 0.0
-1.84937 0 0.0
-1.83264 0.0333333 0.0
-1.85655 0.107143 0.0
-1.81172 0.075 0.0
-1.89998 0.766667 0.0
-1.89089 0.709091 0.0
-1.87498 0.85 0.0
-1.85998 0.79 0.0
-1.88748 0.8125 0.0
-1.89998 1 0.0
-1.88748 0.9625 0.0
-1.86664 0.933333 0.0
-1.85712 0.892857 0.0
-1.87448 0.15 0.0
-1.86611 0.194444 0.0
-1.83264 0.133333 0.0
-1.83264 0.2625 0.0
-1.82068 0.321429 0.0
-1.85664 0.404762 0.0
-1.85674 0.452381 0.0
-1.85683 0.5 0.0
-1.81184 0.375 0.0
-1.85712 0.642857 0.0
-1.85693 0.547619 0.0
-1.85702 0.595238 0.0
-1.79917 0 0.0
-1.78482 0.0357143 0.0
-1.79917 0.116667 0.0
-1.76569 0.0666666 0.0
-1.85452 0.745455 0.0
-1.82689 0.692308 0.0
-1.81815 0.781818 0.0
-1.82497 0.825 0.0
-1.84997 1 0.0
-1.8333 0.958333 0.0
-1.81247 0.8875 0.0
-1.81247 0.925 0.0
-1.81742 0.218182 0.0
-1.82427 0.175 0.0
-1.77634 0.145455 0.0
-1.79144 0.242308 0.0
-1.78482 0.285714 0.0
-1.77469 0.332653 0.0
-1.81215 0.529762 0.0
-1.81194 0.422619 0.0
-1.81203 0.470238 0.0
-1.76714 0.392857 0.0
-1.81234 0.625 0.0
-1.79732 0.571429 0.0
-1.74896 0 0.0
-1.73222 0.0333333 0.0
-1.75398 0.105 0.0
-1.71883 0.07 0.0
-1.79227 0.730769 0.0
-1.78007 0.679121 0.0
-1.75765 0.769231 0.0
-1.78178 0.818182 0.0
-1.78996 0.86 0.0
-1.79996 1 0.0
-1.78568 0.964286 0.0
-1.76663 0.922222 0.0
-1.76569 0.1875 0.0
-1.73222 0.15 0.0
-1.74896 0.25 0.0
-1.73714 0.304762 0.0
-1.76743 0.537202 0.0
-1.72869 0.343878 0.0
-1.76732 0.485119 0.0
-1.76723 0.440476 0.0
-1.72243 0.410714 0.0
-1.76757 0.607143 0.0
-1.69875 0 0.0
-1.68369 0.035 0.0
-1.69875 0.1125 0.0
-1.66528 0.075 0.0
-1.74341 0.708974 0.0
-1.73324 0.665934 0.0
-1.70441 0.74478 0.0
-1.71423 0.785714 0.0
-1.72303 0.826923 0.0
-1.74541 0.854545 0.0
-1.74541 0.890909 0.0
-1.74996 1 0.0
-1.73745 0.9625 0.0
-1.71359 0.927273 0.0
-1.68716 0.153846 0.0
-1.7131 0.214286 0.0
-1.70725 0.275 0.0
-1.69712 0.321939 0.0
-1.72279 0.589286 0.0
-1.72261 0.5 0.0
-1.7227 0.544643 0.0
-1.6827 0.355102 0.0
-1.67773 0.428571 0.0
-1.70763 0.464286 0.0
-1.70369 0.62449 0.0
-1.64854 0 0.0
-1.63181 0.0375 0.0
-1.64137 0.142857 0.0
-1.61764 0.0769231 0.0
-1.69458 0.703846 0.0
-1.67471 0.657437 0.0
-1.66143 0.727637 0.0
-1.67125 0.768571 0.0
-1.67851 0.821429 0.0
-1.68841 0.861538 0.0
-1.70904 0.890909 0.0
-1.69995 1 0.0
-1.68176 0.963636 0.0
-1.67267 0.927273 0.0
-1.65427 0.187143 0.0
-1.66718 0.231429 0.0
-1.66554 0.3 0.0
-1.67802 0.571429 0.0
-1.67792 0.523809 0.0
-1.6367 0.366327 0.0
-1.63682 0.423469 0.0
-1.62568 0.502976 0.0
-1.6629 0.470238 0.0
-1.65254 0.618367 0.0
-1.6059 0.307143 0.0
-1.59833 0 0.0
-1.58288 0.0384615 0.0
-1.60563 0.169643 0.0
-1.58179 0.112271 0.0
-1.56964 0.0714286 0.0
-1.64574 0.690385 0.0
-1.62827 0.751429 0.0
-1.63371 0.791071 0.0
-1.64279 0.857143 0.0
-1.65378 0.896154 0.0
-1.64994 1 0.0
-1.6363 0.963636 0.0
-1.61916 0.930769 0.0
-1.61345 0.209107 0.0
-1.62126 0.248571 0.0
-1.56989 0.196429 0.0
-1.63324 0.553571 0.0
-1.58846 0.535714 0.0
-1.59408 0.361905 0.0
-1.59161 0.402211 0.0
-1.58832 0.464286 0.0
-1.61504 0.598581 0.0
-1.59683 0.64359 0.0
-1.57899 0.274107 0.0
-1.56176 0.322381 0.0
-1.54812 0 0.0
-1.53378 0.0357143 0.0
-1.54593 0.147619 0.0
-1.53385 0.0732143 0.0
-1.53393 0.110714 0.0
-1.58522 0.704286 0.0
-1.58709 0.745 0.0
-1.58896 0.785714 0.0
-1.60695 0.830357 0.0
-1.60707 0.892857 0.0
-1.59993 1 0.0
-1.58454 0.965385 0.0
-1.57135 0.928571 0.0
-1.55209 0.241071 0.0
-1.5291 0.198214 0.0
-1.56936 0.570918 0.0
-1.54369 0.517857 0.0
-1.5464 0.380952 0.0
-1.54564 0.427721 0.0
-1.54488 0.47449 0.0
-1.55026 0.606122 0.0
-1.54222 0.677143 0.0
-1.52943 0.282857 0.0
-1.52143 0.33619 0.0
-1.49792 0 0.0
-1.49802 0.05 0.0
-1.49822 0.15 0.0
-1.49312 0.1 0.0
-1.5423 0.717143 0.0
-1.54419 0.767857 0.0
-1.54727 0.819048 0.0
-1.57122 0.861905 0.0
-1.53553 0.914286 0.0
-1.54992 1 0.0
-1.53563 0.964286 0.0
-1.49842 0.25 0.0
-1.48831 0.2 0.0
-1.5214 0.558929 0.0
-1.49891 0.5 0.0
-1.49871 0.4 0.0
-1.47631 0.45 0.0
-1.49911 0.6 0.0
-1.49921 0.65 0.0
-1.49931 0.7 0.0
-1.48111 0.35 0.0
-1.48351 0.3 0.0
-1.44771 0 0.0
-1.44782 0.05 0.0
-1.44804 0.15 0.0
-1.44793 0.1 0.0
-1.49941 0.75 0.0
-1.49951 0.8 0.0
-1.49981 0.95 0.0
-1.49961 0.85 0.0
-1.49971 0.9 0.0
-1.49991 1 0.0
-1.44826 0.25 0.0
-1.43815 0.2 0.0
-1.47151 0.55 0.0
-1.44881 0.5 0.0
-1.44859 0.4 0.0
-1.42619 0.45 0.0
-1.44913 0.65 0.0
-1.44902 0.6 0.0
-1.44935 0.75 0.0
-1.44924 0.7 0.0
-1.43972 0.35 0.0
-1.43336 0.3 0.0
-1.3975 0 0.0
-1.39762 0.05 0.0
-1.39786 0.15 0.0
-1.39274 0.1 0.0
-1.44957 0.85 0.0
-1.44946 0.8 0.0
-1.4523 0.95 0.0
-1.44968 0.9 0.0
-1.4499 1 0.0
-1.3981 0.25 0.0
-1.38798 0.2 0.0
-1.42141 0.55 0.0
-1.3987 0.5 0.0
-1.39834 0.35 0.0
-1.37845 0.4 0.0
-1.37607 0.45 0.0
-1.40784 0.65 0.0
-1.39894 0.6 0.0
-1.41185 0.75 0.0
-1.39918 0.7 0.0
-1.38322 0.3 0.0
-1.34729 0 0.0
-1.34492 0.05 0.0
-1.34018 0.15 0.0
-1.34255 0.1 0.0
-1.40707 0.85 0.0
-1.39941 0.8 0.0
-1.39977 0.95 0.0
-1.39965 0.9 0.0
-1.39989 1 0.0
-1.33781 0.2 0.0
-1.33544 0.25 0.0
-1.37131 0.55 0.0
-1.34859 0.5 0.0
-1.33833 0.4 0.0
-1.3307 0.35 0.0
-1.32595 0.45 0.0
-1.34885 0.6 0.0
-1.36655 0.65 0.0
-1.36179 0.75 0.0
-1.34911 0.7 0.0
-1.33307 0.3 0.0
-1.29708 0 0.0
-1.29722 0.05 0.0
-1.2975 0.15 0.0
-1.29236 0.1 0.0
-1.35703 0.85 0.0
-1.34937 0.8 0.0
-1.34988 1 0.0
-1.34962 0.9 0.0
-1.35226 0.95 0.0
-1.28528 0.25 0.0
-1.28764 0.2 0.0
-1.28931 0.35 0.0
-1.32121 0.55 0.0
-1.29848 0.5 0.0
-1.28709 0.45 0.0
-1.2982 0.4 0.0
-1.29876 0.6 0.0
-1.31647 0.65 0.0
-1.29918 0.75 0.0
-1.29904 0.7 0.0
-1.28292 0.3 0.0
-1.24687 0 0.0
-1.24702 0.05 0.0
-1.24717 0.1 0.0
-1.24732 0.15 0.0
-1.29946 0.85 0.0
-1.29932 0.8 0.0
-1.29987 1 0.0
-1.29974 0.95 0.0
-1.30462 0.9 0.0
-1.24762 0.25 0.0
-1.23747 0.2 0.0
-1.24792 0.35 0.0
-1.22807 0.4 0.0
-1.27111 0.55 0.0
-1.24837 0.5 0.0
-1.24822 0.45 0.0
-1.24867 0.6 0.0
-1.26639 0.65 0.0
-1.26167 0.75 0.0
-1.24897 0.7 0.0
-1.23277 0.3 0.0
-1.19667 0 0.0
-1.19683 0.05 0.0
-1.18964 0.15 0.0
-1.19198 0.1 0.0
-1.25695 0.85 0.0
-1.24927 0.8 0.0
-1.25223 0.95 0.0
-1.24987 1 0.0
-1.24957 0.9 0.0
-1.1873 0.2 0.0
-1.18496 0.25 0.0
-1.18028 0.35 0.0
-1.17794 0.4 0.0
-1.1981 0.45 0.0
-1.19842 0.55 0.0
-1.19826 0.5 0.0
-1.19858 0.6 0.0
-1.19874 0.65 0.0
-1.19906 0.75 0.0
-1.1989 0.7 0.0
-1.18262 0.3 0.0
-1.14646 0 0.0
-1.14663 0.05 0.0
-1.1418 0.1 0.0
-1.13713 0.2 0.0
-1.14697 0.15 0.0
-1.20691 0.85 0.0
-1.20926 0.8 0.0
-1.20221 0.95 0.0
-1.19986 1 0.0
-1.20456 0.9 0.0
-1.13997 0.3 0.0
-1.14731 0.25 0.0
-1.13781 0.4 0.0
-1.13014 0.35 0.0
-1.12548 0.45 0.0
-1.14815 0.5 0.0
-1.15962 0.55 0.0
-1.14849 0.6 0.0
-1.15745 0.65 0.0
-1.16155 0.75 0.0
-1.14917 0.8 0.0
-1.14883 0.7 0.0
-1.09625 0 0.0
-1.09661 0.1 0.0
-1.09393 0.05 0.0
-1.09697 0.2 0.0
-1.08929 0.15 0.0
-1.15687 0.85 0.0
-1.14985 1 0.0
-1.15219 0.95 0.0
-1.14951 0.9 0.0
-1.09733 0.3 0.0
-1.08465 0.25 0.0
-1.09769 0.4 0.0
-1.08 0.35 0.0
-1.08661 0.45 0.0
-1.09804 0.5 0.0
-1.12082 0.55 0.0
-1.10916 0.8 0.0
-1.10629 0.7 0.0
-1.0984 0.6 0.0
-1.11616 0.65 0.0
-1.11149 0.75 0.0
-1.04604 0 0.0
-1.04623 0.05 0.0
-1.04642 0.1 0.0
-1.0468 0.2 0.0
-1.03911 0.15 0.0
-1.09948 0.9 0.0
-1.0993 0.85 0.0
-1.09984 1 0.0
-1.09966 0.95 0.0
-1.04718 0.3 0.0
-1.03449 0.25 0.0
-1.04756 0.4 0.0
-1.02986 0.35 0.0
-1.04775 0.45 0.0
-1.04794 0.5 0.0
-1.04813 0.55 0.0
-1.05911 0.8 0.0
-1.04831 0.6 0.0
-1.06376 0.7 0.0
-1.0485 0.65 0.0
-1.04888 0.75 0.0
-0.995833 0 0.0
-0.991231 0.1 0.0
-0.996033 0.05 0.0
-0.986629 0.2 0.0
-0.98893 0.15 0.0
-1.05447 0.9 0.0
-1.04926 0.85 0.0
-1.04983 1 0.0
-1.04964 0.95 0.0
-0.984328 0.25 0.0
-0.99703 0.3 0.0
-0.997429 0.4 0.0
-0.997628 0.45 0.0
-0.979726 0.35 0.0
-0.997827 0.5 0.0
-0.998027 0.55 0.0
-0.998226 0.6 0.0
-0.961416 0.475 0.0
-1.00907 0.8 0.0
-0.998426 0.65 0.0
-0.998625 0.7 0.0
-1.01138 0.75 0.0
-0.945625 0 0.0
-0.946044 0.1 0.0
-0.943334 0.05 0.0
-0.946463 0.2 0.0
-0.938752 0.15 0.0
-1.00444 0.9 0.0
-1.00675 0.85 0.0
-0.999821 1 0.0
-1.00213 0.95 0.0
-0.93417 0.25 0.0
-0.946881 0.3 0.0
-0.9473 0.4 0.0
-0.929588 0.35 0.0
-0.925005 0.45 0.0
-0.960371 0.525 0.0
-0.959325 0.575 0.0
-0.958279 0.625 0.0
-0.922714 0.5 0.0
-0.959017 0.8 0.0
-0.957233 0.675 0.0
-0.952999 0.7125 0.0
-0.948766 0.75 0.0
-0.895417 0 0.0
-0.895855 0.1 0.0
-0.893136 0.05 0.0
-0.896294 0.2 0.0
-0.888573 0.15 0.0
-0.949184 0.85 0.0
-0.954415 0.9 0.0
-0.949812 1 0.0
-0.949603 0.95 0.0
-0.884011 0.25 0.0
-0.896733 0.3 0.0
-0.874887 0.45 0.0
-0.879449 0.35 0.0
-0.897171 0.4 0.0
-0.920423 0.55 0.0
-0.918132 0.6 0.0
-0.915841 0.65 0.0
-0.872606 0.5 0.0
-0.908968 0.8 0.0
-0.91355 0.7 0.0
-0.898707 0.75 0.0
-0.845208 0 0.0
-0.845438 0.05 0.0
-0.845667 0.1 0.0
-0.845896 0.15 0.0
-0.833853 0.25 0.0
-0.846126 0.2 0.0
-0.899146 0.85 0.0
-0.904386 0.9 0.0
-0.899584 0.95 0.0
-0.899804 1 0.0
-0.838062 0.35 0.0
[...]
POINT_DATA 10839
VECTORS Velocity float
0.21 0 0.0
0.24 0 0.0
0.2275 0 0.0
0.2475 0 0.0
0.25 0 0.0
0.2475 0 0.0
0 0 0.0
0.0475 0 0.0
0.1275 0 0.0
0.09 0 0.0
0.09 0 0.0
0.1275 0 0.0
0.1875 0 0.0
0.16 0 0.0
0.195559 -3.86998e-05 0.0
0.242838 -3.92463e-05 0.0
0.215776 -4.63842e-05 0.0
0.231404 -4.78662e-05 0.0
0.24872 -2.85757e-05 0.0
0.24 0 0.0
0.242837 1.95836e-07 0.0
0.248516 -1.26123e-05 0.0
0 0 0.0
0.0622236 -7.14116e-06 0.0
0.0322312 -5.09126e-06 0.0
0.16 0 0.0
0.1875 0 0.0
0.21 0 0.0
0.2275 0 0.0
0.193595 1.08308e-05 0.0
0.13889 -3.52409e-07 0.0
0 0 0.0
0.0475 0 0.0
0.0998429 -1.7738e-06 0.0
0.0622213 1.70209e-06 0.0
0.0998469 -1.18616e-05 0.0
0.138892 -1.85148e-05 0.0
0.174387 -5.91998e-05 0.0
0.20161 -9.11569e-05 0.0
0.235777 -9.38176e-05 0.0
0.24407 -7.98867e-05 0.0
0.223595 -0.000153174 0.0
0.24973 -4.87168e-05 0.0
0.249022 -2.53426e-05 0.0
0.231402 8.62198e-06 0.0
0.244068 3.14048e-06 0.0
0 0 0.0
0.0361021 5.63293e-06 0.0
0.0736075 -2.70151e-06 0.0
0.0622216 3.81994e-05 0.0
0.174381 1.29643e-05 0.0
0.220163 2.58121e-05 0.0
0.201605 2.97329e-05 0.0
0.115557 -6.91328e-06 0.0
0.146692 1.96476e-06 0.0
0 0 0.0
0.036095 -2.5801e-07 0.0
0.0693696 -5.43634e-06 0.0
0.0899945 -2.71712e-05 0.0
0.109398 -1.41333e-05 0.0
0.146701 -4.44741e-05 0.0
0.178926 -0.000112463 0.0
0.206303 -0.00016486 0.0
0.214503 -0.000241828 0.0
0.238496 -0.000153491 0.0
0.247304 -0.000111445 0.0
0.22957 -0.000250328 0.0
0.226319 5.82103e-05 0.0
0.249935 -5.39632e-05 0.0
0.246388 -1.41317e-06 0.0
0.236661 3.7282e-05 0.0
0 0 0.0
0.0321753 3.81694e-05 0.0
0.0957087 4.2672e-05 0.0
0.069347 0.000146344 0.0
0.17891 3.50644e-05 0.0
0.206287 6.69731e-05 0.0
0.12753 -2.80282e-05 0.0
0.165961 4.30968e-05 0.0
0.152376 9.05744e-06 0.0
0 0 0.0
0.0360833 -1.22431e-05 0.0
0.0621885 -5.82756e-05 0.0
0.095669 -8.55536e-05 0.0
0.127561 -2.87407e-05 0.0
0.156717 -0.000106118 0.0
0.115683 3.56255e-05 0.0
0.193689 -0.000275386 0.0
0.218129 -0.000367326 0.0
0.24087 -0.000214717 0.0
0.247647 -0.000156039 0.0
0.249903 -8.16207e-05 0.0
0.2343 -0.000369116 0.0
0.229555 0.000101218 0.0
0.247642 -6.11662e-06 0.0
0.240858 6.0304e-05 0.0
0 0 0.0
0.0342523 8.46833e-05 0.0
0.103226 0.000132535 0.0
0.0620704 0.0002057 0.0
0.189796 0.000100647 0.0
0.213024 0.000181281 0.0
0.170705 0.000106475 0.0
0.144501 -9.61017e-06 0.0
0 0 0.0
0.0398389 -6.45544e-05 0.0
0.0999018 -0.000177026 0.0
0.0692823 -0.00017805 0.0
0.170764 -0.000230807 0.0
0.144557 -8.76189e-05 0.0
0.12466 2.91111e-05 0.0
0.183812 -0.000376676 0.0
0.204199 -0.000493913 0.0
0.221977 -0.000561152 0.0
0.248928 -3.18694e-05 0.0
0.243871 -0.000291471 0.0
0.248935 -0.000181121 0.0
0.238327 -0.000505413 0.0
0.234273 0.000173889 0.0
0.244705 9.23272e-05 0.0
0 0 0.0
0.0318258 9.33761e-05 0.0
0.0941946 0.000198879 0.0
0.0649047 0.00017672 0.0
0.19684 0.000263118 0.0
0.217881 0.000332244 0.0
0.177793 0.00031548 0.0
0.149037 4.10765e-05 0.0
0.120604 -0.00013905 0.0
0 0 0.0
0.0341967 -9.44567e-05 0.0
0.0715703 -0.000264172 0.0
0.152778 -0.000234356 0.0
0.128151 -9.52592e-05 0.0
0.187825 -0.000604226 0.0
0.211972 -0.000790777 0.0
0.248288 2.47274e-05 0.0
0.225516 -0.000820131 0.0
0.249448 -0.000188841 0.0
0.246169 -0.000358115 0.0
0.241629 -0.000646189 0.0
0.238294 0.000254513 0.0
0 0 0.0
0.0332281 5.51609e-05 0.0
0.100378 -4.53543e-05 0.0
0.0694039 -0.000147531 0.0
0.206403 0.000517014 0.0
0.222341 0.000551839 0.0
0.190419 0.000743374 0.0
0.168914 0.00049641 0.0
0.14374 0.000174554 0.0
0.124724 -9.24787e-05 0.0
0.0973581 -0.000250465 0.0
0 0 0.0
0.0356153 -0.000124872 0.0
0.0671441 -0.000202219 0.0
0.1312 -0.000466187 0.0
0.169045 -0.000681069 0.0
0.199673 -0.00100053 0.0
0.218263 -0.00111304 0.0
0.241588 0.000335684 0.0
0.249448 -0.000150479 0.0
0.247475 0.000111438 0.0
0.228702 -0.00114755 0.0
0.244167 -0.000766679 0.0
0.248116 -0.000398394 0.0
0.234104 0.000606711 0.0
0 0 0.0
0.0356919 -9.24683e-05 0.0
0.123776 -0.0010426 0.0
0.0716314 -0.000744068 0.0
0.208493 0.000886142 0.0
0.22488 0.000958994 0.0
0.198446 0.0012417 0.0
0.178515 0.0010058 0.0
0.147613 0.000604348 0.0
0.120028 0.000204963 0.0
0.0974684 -0.000126206 0.0
0 0 0.0
0.0343767 -6.53028e-05 0.0
0.067193 1.36085e-05 0.0
0.153386 -0.00118638 0.0
0.178684 -0.00129516 0.0
0.210114 -0.00146656 0.0
0.244129 0.000411011 0.0
0.248558 1.51159e-05 0.0
0.231491 -0.0015354 0.0
0.243077 -0.0010545 0.0
0.248562 -0.000173315 0.0
0.248133 -0.000464664 0.0
0.235247 0.000929866 0.0
0.212705 -0.00233409 0.0
0 0 0.0
0.0372012 -0.0003364 0.0
0.142515 -0.00211025 0.0
0.101575 -0.0021991 0.0
0.0679569 -0.00132136 0.0
0.213597 0.00139132 0.0
0.187364 0.00171471 0.0
0.16631 0.00147429 0.0
0.123544 0.000924439 0.0
0.0935592 0.000419674 0.0
0 0 0.0
0.0344288 5.51886e-05 0.0
0.0646129 0.000519912 0.0
0.166724 -0.00215101 0.0
0.187579 -0.00211743 0.0
0.159448 -0.00333875 0.0
0.245881 0.000431627 0.0
0.246806 0.000323574 0.0
0.229973 -0.00213175 0.0
0.239009 -0.00168177 0.0
0.246863 -0.000794289 0.0
0.239049 0.0010464 0.0
0.228379 0.00173805 0.0
0.199317 -0.00301015 0.0
0.217774 -0.00307578 0.0
0 0 0.0
0.0357187 -0.000542016 0.0
0.128168 -0.00398166 0.0
0.0709012 -0.00201679 0.0
0.101588 -0.00353323 0.0
0.208057 0.00242354 0.0
0.190449 0.00256216 0.0
0.169451 0.00253992 0.0
0.142248 0.00190738 0.0
0.0967409 0.00135266 0.0
0 0 0.0
0.0333001 0.000242922 0.0
0.0676288 0.00126383 0.0
0.183872 -0.0038617 0.0
0.160504 -0.00483597 0.0
0.242906 0.001028 0.0
0.246878 0.000107418 0.0
0.233993 -0.00258884 0.0
0.242364 -0.00173963 0.0
0.246613 -0.000807219 0.0
0.23666 0.00184274 0.0
0.21749 0.00307412 0.0
0.202692 -0.00428405 0.0
0.221699 -0.00378649 0.0
0 0 0.0
0.0511816 -0.00137663 0.0
0.130478 -0.00593802 0.0
0.0951044 -0.0042981 0.0
0.202528 0.00352217 0.0
0.178964 0.00385077 0.0
0.149705 0.00392455 0.0
0.120712 0.0027633 0.0
0.0812142 0.00248802 0.0
0 0 0.0
0.0354214 0.000503269 0.0
0.187766 -0.00571079 0.0
0.161394 -0.00661707 0.0
0.243397 0.00116046 0.0
0.246102 -0.00028182 0.0
0.236906 -0.00296866 0.0
0.2432 -0.00186388 0.0
0.236743 0.00240737 0.0
0.225098 0.00355732 0.0
0.208718 0.00453868 0.0
0.224942 -0.00450113 0.0
0.208755 -0.00548917 0.0
0 0 0.0
0.0541839 -0.0017652 0.0
0.131709 -0.00810241 0.0
0.0978962 -0.0054502 0.0
0.187421 0.00530062 0.0
0.161041 0.00583466 0.0
0.0507596 0.00132605 0.0
0.130016 0.00567191 0.0
0.0942812 0.00401181 0.0
0 0 0.0
0.186978 -0.00791431 0.0
0.161147 -0.00907315 0.0
0.242931 0.00128692 0.0
0.244481 -0.00033586 0.0
0.235475 -0.00383155 0.0
0.241397 -0.00237127 0.0
0.223827 0.00481143 0.0
0.235292 0.00321398 0.0
0.186532 0.00747509 0.0
0.207626 0.00622732 0.0
0.223836 -0.0056526 0.0
0.207585 -0.00733695 0.0
0 0 0.0
0.0578755 -0.00207088 0.0
0.133612 -0.0100783 0.0
0.102407 -0.00664177 0.0
0.131159 0.00782438 0.0
0.160705 0.00823356 0.0
0.0535073 0.00171485 0.0
0.0973193 0.0053145 0.0
0 0 0.0
0.185828 -0.0104077 0.0
0.16106 -0.0115906 0.0
0.241115 0.00172747 0.0
0.242427 -0.000368962 0.0
0.222376 -0.00697417 0.0
0.232705 -0.00536569 0.0
0.239175 -0.00294576 0.0
0.222381 0.00604061 0.0
0.233355 0.004181 0.0
0.185602 0.00928613 0.0
0.206032 0.00823144 0.0
0.205943 -0.00948584 0.0
0 0 0.0
0.0620109 -0.00230754 0.0
0.13689 -0.0118351 0.0
0.107305 -0.0073218 0.0
0.13258 0.00949882 0.0
0.160424 0.0106934 0.0
0.0571283 0.00201329 0.0
0.101168 0.00636246 0.0
0 0 0.0
0.161411 -0.0138394 0.0
0.18423 -0.013602 0.0
0.238777 0.00223026 0.0
0.239793 -0.000422135 0.0
0.230562 -0.00637903 0.0
0.219194 -0.00944699 0.0
0.236327 -0.00361405 0.0
0.230863 0.00531647 0.0
0.220588 0.00741985 0.0
0.184254 0.0117961 0.0
0.203979 0.0104605 0.0
0.203841 -0.0118178 0.0
0 0 0.0
0.0659241 -0.00231868 0.0
0.140052 -0.012578 0.0
0.112787 -0.00752929 0.0
0.135125 0.0110997 0.0
0.160573 0.0129728 0.0
0 0 0.0
0.105921 0.00701646 0.0
0.0608141 0.00217253 0.0
0.183055 -0.0158193 0.0
0.162481 -0.0155497 0.0
0.216739 -0.0110249 0.0
0.235856 0.00281135 0.0
0.236562 -0.000474496 0.0
0.233678 -0.00417589 0.0
0.228107 -0.00743721 0.0
0.227757 0.00655088 0.0
0.217883 0.00922709 0.0
0.182554 0.0146904 0.0
0.201559 0.0126885 0.0
0.201468 -0.0140801 0.0
0 0 0.0
0.0701867 -0.00214893 0.0
0.117899 -0.00731692 0.0
0.144437 -0.0127723 0.0
0.139103 0.0121722 0.0
0.161348 0.0147113 0.0
0 0 0.0
0.0650908 0.00220394 0.0
0.110607 0.00725692 0.0
0.182484 -0.0170018 0.0
0.164359 -0.0163453 0.0
0.214057 -0.0124829 0.0
0.222835 -0.00925003 0.0
0.232272 0.0034173 0.0
0.232646 -0.000535584 0.0
0.230644 -0.00474016 0.0
0.224053 0.0077625 0.0
0.214683 0.0109907 0.0
0.181808 0.0159489 0.0
0.199039 0.0145649 0.0
0.199071 -0.0158768 0.0
0 0 0.0
0.074035 -0.00187773 0.0
0.150321 -0.0120066 0.0
0.124143 -0.0065613 0.0
0.142709 0.0123252 0.0
0.16292 0.0156516 0.0
0.0689124 0.00209574 0.0
0 0 0.0
0.116644 0.0070124 0.0
0.16701 -0.016165 0.0
0.182302 -0.0177788 0.0
0.209323 -0.014161 0.0
0.218552 -0.0102154 0.0
0.226212 -0.00536192 0.0
0.225943 0.00420132 0.0
0.2281 -0.000608767 0.0
0.219848 0.0087276 0.0
0.209868 0.0128043 0.0
0.181251 0.0169248 0.0
0.196659 0.0157132 0.0
0.196888 -0.0168635 0.0
0 0 0.0
0.0774855 -0.00158932 0.0
0.129278 -0.00567173 0.0
0.170233 -0.0150481 0.0
0.154652 -0.0109619 0.0
0.147463 0.0117692 0.0
0.164761 0.0156794 0.0
0.0725513 0.00181702 0.0
0 0 0.0
0.121572 0.00644144 0.0
0.195402 -0.0169235 0.0
0.182773 -0.0174328 0.0
0.215004 -0.0105662 0.0
0.205983 -0.0144536 0.0
0.219033 -0.0058881 0.0
0.223065 -0.000692605 0.0
0.222191 0.00442796 0.0
0.215385 0.00922086 0.0
0.20696 0.0132431 0.0
0.18147 0.016678 0.0
0.168301 0.014511 0.0
0.194682 0.0158532 0.0
0 0 0.0
0.133388 -0.00469375 0.0
0.0802503 -0.00132131 0.0
0.173104 -0.0135944 0.0
0.160327 -0.00908425 0.0
0.152417 0.0105423 0.0
0 0 0.0
0.0757031 0.00147699 0.0
0.127086 0.00540006 0.0
0.194317 -0.0161927 0.0
0.184086 -0.015622 0.0
0.211542 -0.0105506 0.0
0.202956 -0.0138487 0.0
0.215233 -0.00588203 0.0
0.217851 -0.000779841 0.0
0.218296 0.00445413 0.0
0.170931 0.0130979 0.0
0.193428 0.0151094 0.0
0.210981 0.00905004 0.0
0.20422 0.0130543 0.0
0.182237 0.0154231 0.0
0 0 0.0
0.0822282 -0.00102395 0.0
0.137203 -0.00367705 0.0
0.176586 -0.0114465 0.0
0.164745 -0.00731064 0.0
0.131326 0.00429641 0.0
0.157847 0.00861752 0.0
0 0 0.0
0.0784633 0.00110677 0.0
0.193564 -0.0145208 0.0
0.185669 -0.0134331 0.0
0.207511 -0.0099209 0.0
0.200488 -0.0125087 0.0
0.211476 -0.00569499 0.0
0.212726 -0.000906821 0.0
0.211108 0.00391032 0.0
0.17421 0.0108178 0.0
0.206855 0.00819365 0.0
0.192551 0.0136804 0.0
0.200305 0.0114276 0.0
0.183792 0.0127015 0.0
0 0 0.0
0.140407 -0.00267188 0.0
0.0840083 -0.000711623 0.0
0.18037 -0.00873072 0.0
0.168401 -0.00564967 0.0
0.134511 0.00327115 0.0
0.162082 0.006736 0.0
0 0 0.0
0.0801876 0.000876264 0.0
0.187287 -0.0110027 0.0
0.193213 -0.0123448 0.0
0.204034 -0.00882539 0.0
0.207158 -0.00521765 0.0
0.198562 -0.0106948 0.0
0.208119 -0.00104378 0.0
0.206806 0.00314273 0.0
0.203302 0.00684044 0.0
0.205091 -0.00301829 0.0
0.177321 0.00837771 0.0
0.198117 0.00945473 0.0
0.191864 0.01061 0.0
0.184904 0.0107394 0.0
0 0 0.0
0.14245 -0.00202168 0.0
0.0852268 -0.000555054 0.0
0.182628 -0.00710109 0.0
0.171347 -0.0042397 0.0
0.137202 0.00225416 0.0
0.165091 0.00516406 0.0
0 0 0.0
0.0815291 0.000562959 0.0
0.188855 -0.00867756 0.0
0.193224 -0.0100414 0.0
0.201202 -0.00752809 0.0
0.197171 -0.00879141 0.0
0.202168 -0.00437071 0.0
0.204778 0.000674116 0.0
0.20264 0.00408269 0.0
0.198957 0.00674349 0.0
0.202571 -0.00133184 0.0
0.179907 0.00602345 0.0
0.194259 0.00822176 0.0
0.190427 0.00822003 0.0
0.186611 0.00741625 0.0
0 0 0.0
0.144131 -0.00149968 0.0
0.086088 -0.000406675 0.0
0.18489 -0.00538953 0.0
0.173624 -0.00316668 0.0
0.168226 0.00328876 0.0
0.139118 0.00140003 0.0
0 0 0.0
0.0825221 0.000286951 0.0
0.190244 -0.00670585 0.0
0.193395 -0.00793914 0.0
0.19963 -0.00383868 0.0
0.196219 -0.00706653 0.0
0.199061 -0.00624622 0.0
0.201448 0.00167082 0.0
0.198991 0.00416686 0.0
0.195575 0.00578773 0.0
0.19983 -0.00155352 0.0
0.181994 0.0039993 0.0
0.191683 0.00626816 0.0
0.187802 0.00504278 0.0
0 0 0.0
0.0866491 -0.00033244 0.0
0.145422 -0.00115253 0.0
0.175115 -0.00251619 0.0
0.191393 -0.00519452 0.0
0.186703 -0.00411197 0.0
0.170155 0.00196706 0.0
0.140352 0.000757172 0.0
0.0828835 0.000150817 0.0
0 0 0.0
0.195699 -0.00589908 0.0
0.193686 -0.00624128 0.0
0.198157 -0.00352822 0.0
0.197499 -0.00518698 0.0
0.194557 0.00373708 0.0
0.198927 0.000699811 0.0
0.197072 0.00256033 0.0
0.19782 -0.00181403 0.0
0.188696 0.0030599 0.0
0.183706 0.00205961 0.0
0.191696 0.00346143 0.0
0 0 0.0
0.0872563 -0.000281557 0.0
0.146453 -0.000961003 0.0
0.176472 -0.00200151 0.0
0.192158 -0.00436939 0.0
0.188381 -0.00314348 0.0
0.171383 0.000964109 0.0
0.141113 0.000226762 0.0
0.0830586 1.78156e-05 0.0
0 0 0.0
0.172202 0.000209518 0.0
0.195358 -0.00499833 0.0
0.19409 -0.00472417 0.0
0.196088 -0.00419127 0.0
0.197019 -0.00331902 0.0
0.193626 0.00147079 0.0
0.195681 0.00115856 0.0
0.197081 -0.000184505 0.0
0.19638 -0.00211036 0.0
0.189355 0.00149749 0.0
0.184688 0.000864333 0.0
0.191735 0.00175443 0.0
0 0 0.0
0.0877624 -0.000256186 0.0
0.147268 -0.000908292 0.0
0.177538 -0.001771 0.0
0.192974 -0.00364613 0.0
0.189447 -0.00271959 0.0
0.082937 -7.85669e-05 0.0
0.141404 -0.000120324 0.0
0 0 0.0
0.172487 -0.000260856 0.0
0.195144 -0.00429337 0.0
0.194432 -0.00405449 0.0
0.195506 -0.00384101 0.0
0.195967 -0.00321863 0.0
0.19322 0.000384176 0.0
0.194674 -8.99387e-06 0.0
0.195382 -0.00245772 0.0
0.195277 -0.00128932 0.0
0.189639 0.000577516 0.0
0.185213 -2.45198e-05 0.0
0.19171 0.000422775 0.0
0 0 0.0
0.0883131 -0.000283282 0.0
0.147968 -0.000954 0.0
0.178526 -0.00171946 0.0
0.193798 -0.00324453 0.0
0.194754 -0.0037515 0.0
0.190302 -0.00258115 0.0
0.0828363 -0.000157261 0.0
0.141362 -0.00036872 0.0
0 0 0.0
0.172603 -0.000676626 0.0
0.19505 -0.00387295 0.0
0.1952 -0.00375736 0.0
0.195259 -0.00329214 0.0
0.194834 -0.00275249 0.0
0.192885 -0.000516605 0.0
0.19394 -0.00097603 0.0
0.194474 -0.00195208 0.0
0.185498 -0.00069467 0.0
0.189854 -0.000387565 0.0
0.191625 -0.000606818 0.0
0 0 0.0
0.0888533 -0.000369195 0.0
0.148765 -0.00107093 0.0
0.17935 -0.00185929 0.0
0.194253 -0.00323576 0.0
0.195068 -0.00372881 0.0
0.191065 -0.00265054 0.0
0.0825565 -0.000223255 0.0
0.141164 -0.000551664 0.0
0 0 0.0
0.185451 -0.0011081 0.0
0.140761 -0.000684309 0.0
0.1724 -0.00103279 0.0
0.195102 -0.00392892 0.0
0.194999 -0.00380521 0.0
0.194632 -0.00366891 0.0
0.194423 -0.00307412 0.0
0.194003 -0.00243608 0.0
0.192535 -0.00140689 0.0
0.193206 -0.00208271 0.0
0.189857 -0.00128166 0.0
0.191511 -0.00131509 0.0
0.195187 -0.00412316 0.0
0 0 0.0
0.0895076 -0.000430567 0.0
0.180185 -0.00211094 0.0
0.149611 -0.0012679 0.0
0.195402 -0.0039739 0.0
0.194915 -0.00348854 0.0
0.191749 -0.00290921 0.0
0.0822214 -0.000258239 0.0
0 0 0.0
0.189776 -0.00171861 0.0
0.185333 -0.00153774 0.0
0.172131 -0.00129289 0.0
0.0816504 -0.000259662 0.0
0.140336 -0.000811211 0.0
0.194867 -0.00407562 0.0
0.19442 -0.00399363 0.0
0.193997 -0.00356672 0.0
0.19375 -0.0039924 0.0
0.19362 -0.00290673 0.0
0.192202 -0.00215565 0.0
0.192783 -0.00277043 0.0
0.191317 -0.00190374 0.0
0.195271 -0.00445904 0.0
0.0902087 -0.000524615 0.0
0 0 0.0
0.180873 -0.00240188 0.0
0.150532 -0.00151315 0.0
0.195723 -0.00442017 0.0
0.195317 -0.00380309 0.0
0.192462 -0.00332626 0.0
0 0 0.0
0.189515 -0.00221721 0.0
0.184914 -0.0019722 0.0
0.17167 -0.00148055 0.0
0.0812303 -0.000300017 0.0
0.139718 -0.000925763 0.0
0.194776 -0.00474744 0.0
0.194258 -0.0043867 0.0
0.193522 -0.00445401 0.0
0.193053 -0.00378723 0.0
0.191861 -0.00281251 0.0
0.192402 -0.00342322 0.0
0.190944 -0.00268417 0.0
0.195436 -0.00505674 0.0
0 0 0.0
0.0912158 -0.000627434 0.0
0.181793 -0.00286292 0.0
0.151536 -0.00180486 0.0
0.193164 -0.00389607 0.0
0.19607 -0.0050685 0.0
0.195977 -0.00452572 0.0
0 0 0.0
0 0 0.0
0.189148 -0.0026791 0.0
0.184523 -0.00231977 0.0
0.171157 -0.00170052 0.0
0.139033 -0.00104034 0.0
0.080684 -0.000352022 0.0
0.194751 -0.00542567 0.0
0.19407 -0.00502582 0.0
0.192094 -0.00394054 0.0
0.193242 -0.00514927 0.0
0.192688 -0.00445703 0.0
0.191485 -0.00343717 0.0
0.19055 -0.00323245 0.0
0.194727 -0.00609298 0.0
0.195566 -0.00583831 0.0
0.0924462 -0.000765267 0.0
0.152795 -0.00217556 0.0
0.18288 -0.00345987 0.0
0.193851 -0.00447947 0.0
0.196424 -0.00589666 0.0
0.196399 -0.00514739 0.0
0 0 0.0
0 0 0.0
0.184008 -0.00258024 0.0
0.188522 -0.0032248 0.0
0.138284 -0.00114381 0.0
0.170337 -0.00195218 0.0
0.0800396 -0.000386662 0.0
0.193826 -0.00614965 0.0
0.19293 -0.00595553 0.0
0.190089 -0.00377629 0.0
0.19176 -0.00446923 0.0
0.192403 -0.0050164 0.0
0.190888 -0.00427018 0.0
0.194697 -0.00683649 0.0
0.195781 -0.00719512 0.0
0.196773 -0.0069537 0.0
0.0938917 -0.000984646 0.0
0.154408 -0.00267402 0.0
0.184269 -0.00437875 0.0
0.194704 -0.005344 0.0
0.19714 -0.00639218 0.0
0 0 0.0
0 0 0.0
0.183206 -0.00298121 0.0
0.187937 -0.00368261 0.0
0.13737 -0.00127852 0.0
0.169513 -0.00218056 0.0
0.0793318 -0.000418126 0.0
0.192092 -0.00561576 0.0
0.192576 -0.00685281 0.0
0.19358 -0.00713378 0.0
0.189531 -0.00432711 0.0
0.191307 -0.00517594 0.0
0.190361 -0.00493035 0.0
0.187241 -0.0041537 0.0
0.194543 -0.00844038 0.0
0 0 0.0
0.195838 -0.00848742 0.0
0.197785 -0.0076596 0.0
0.197097 -0.00821238 0.0
0.0956226 -0.00122164 0.0
0.185604 -0.00522411 0.0
0.15657 -0.00344119 0.0
0.19589 -0.00676893 0.0
0 0 0.0
0 0 0.0
0 0 0.0
0 0 0.0
0 0 0.0
0.0786203 -0.000449208 0.0
0.168649 -0.00242271 0.0
0.182434 -0.00333584 0.0
0.136527 -0.00138788 0.0
0.191628 -0.00644463 0.0
0.192131 -0.00787833 0.0
0.193291 -0.00825638 0.0
0.189849 -0.00548004 0.0
0.188856 -0.00490616 0.0
0.190529 -0.00625149 0.0
0.188214 -0.00541963 0.0
0.1866 -0.00451196 0.0
0.194298 -0.00984796 0.0
0.195849 -0.00994531 0.0
0 0 0.0
-0.000466175 0.000267859 0.0
0 0 0.0
-0.000788396 0.00868439 0.0
0.1974 -0.00977282 0.0
0.198287 -0.00879858 0.0
0.0979899 -0.00156894 0.0
0.187295 -0.00642472 0.0
0.158982 -0.0043685 0.0
0.19706 -0.00831851 0.0
0 0 0.0
0 0 0.0
0 0 0.0
-0.00065868 0.00639483 0.0
-0.000523324 0.00164842 0.0
-0.00142549 0.00147973 0.0
0 0 0.0
0.0777794 -0.000487755 0.0
0.167745 -0.00262298 0.0
0.181508 -0.00370261 0.0
0.135309 -0.00152677 0.0
0.191082 -0.00737506 0.0
0.191571 -0.00902604 0.0
0.192877 -0.00952729 0.0
0.189262 -0.00607214 0.0
0.189994 -0.00693746 0.0
0.187462 -0.00594604 0.0
0.18541 -0.00514099 0.0
0.193947 -0.0114318 0.0
0.195298 -0.0115251 0.0
0.196691 -0.0114266 0.0
0 0 0.0
-0.0016896 0.000569629 0.0
0 0 0.0
0 0 0.0
-0.00263258 0.0148134 0.0
-0.00271104 0.0116435 0.0
0.19798 -0.011227 0.0
0.19892 -0.0106599 0.0
0.161587 -0.00545037 0.0
0.100751 -0.00204843 0.0
0.189303 -0.00801326 0.0
0.19824 -0.0102568 0.0
0 0 0.0
-0.00183648 0.0053956 0.0
-0.0022905 0.00836579 0.0
-0.00226572 0.003618 0.0
-0.00361338 0.00231296 0.0
0 0 0.0
0.0768873 -0.000527543 0.0
0.166608 -0.0028668 0.0
0.180434 -0.00407006 0.0
0.134119 -0.00165658 0.0
0.19041 -0.00839088 0.0
0.190868 -0.0102839 0.0
0.19231 -0.0109633 0.0
0.188141 -0.00710915 0.0
0.189375 -0.00764817 0.0
0.186453 -0.00660563 0.0
0.179326 -0.00446528 0.0
0.18434 -0.00566838 0.0
0.193514 -0.0128538 0.0
0.195545 -0.0130238 0.0
0.197661 -0.0132011 0.0
0 0 0.0
-0.00386353 0.000795753 0.0
0 0 0.0
0 0 0.0
0 0 0.0
0 0 0.0
-0.0051845 0.0109459 0.0
-0.00088322 0.0130013 0.0
-0.00276631 0.0175663 0.0
-0.00582849 0.0190952 0.0
-0.00503753 0.0151219 0.0
0 0 0.0
-0.000455961 0.0200546 0.0
0.199583 -0.0136052 0.0
0.199278 -0.012175 0.0
0 0 0.0
0.104737 -0.00281504 0.0
0.165199 -0.00695592 0.0
0.192067 -0.010653 0.0
0 0 0.0
0 0 0.0
-0.00443753 0.00754141 0.0
-0.00506572 0.00489521 0.0
-0.00642999 0.00268033 0.0
0 0 0.0
0.0758629 -0.000569003 0.0
0.16516 -0.00315571 0.0
0.132782 -0.00178507 0.0
0.178224 -0.00476104 0.0
0.189592 -0.00949597 0.0
0.190215 -0.0113071 0.0
0.191562 -0.0125754 0.0
0.187302 -0.00777468 0.0
0.18847 -0.00859671 0.0
0.185308 -0.00727951 0.0
0.183382 -0.00605623 0.0
0.196409 -0.0146272 0.0
0.192924 -0.0144189 0.0
0.194888 -0.0160586 0.0
0.197475 -0.0165179 0.0
0.199954 -0.0166816 0.0
0 0 0.0
-0.00554925 0.000767835 0.0
-0.000706094 0.019595 0.0
-0.00289278 0.0285153 0.0
-0.000958955 0.015792 0.0
-0.00753811 0.0130546 0.0
-0.00978161 0.00981701 0.0
-0.00345287 0.0227251 0.0