# vtk DataFile Version 3.0
Mesh NS-CD Problem
ASCII
DATASET UNSTRUCTURED_GRID
POINTS 10839 float
-2 0.3 0.0
-2 0.4 0.0
-2 0.35 0.0
-2 0.45 0.0
-2 0.5 0.0
-2 0.55 0.0
-2 0 0.0
-2 0.05 0.0
-2 0.85 0.0
-2 0.9 0.0
-2 0.1 0.0
-2 0.15 0.0
-2 0.25 0.0
-2 0.2 0.0
-1.96653 0.266667 0.0
-1.96524 0.415385 0.0
-1.96485 0.315 0.0
-1.96348 0.363636 0.0
-1.96414 0.464286 0.0
-2 0.6 0.0
-1.96538 0.584615 0.0
-1.96538 0.538462 0.0
-1.94979 0 0.0
-1.96653 0.0666666 0.0
-1.93306 0.0333333 0.0
-2 0.8 0.0
-2 0.75 0.0
-2 0.7 0.0
-2 0.65 0.0
-1.96249 0.7375 0.0
-1.96666 0.833333 0.0
-2 1 0.0
-2 0.95 0.0
-1.96249 0.8875 0.0
-1.96666 0.933333 0.0
-1.96234 0.1125 0.0
-1.96653 0.166667 0.0
-1.93724 0.225 0.0
-1.92971 0.28 0.0
-1.93048 0.380769 0.0
-1.93048 0.423077 0.0
-1.89958 0.3375 0.0
-1.9292 0.484203 0.0
-1.92117 0.530907 0.0
-1.96363 0.636364 0.0
-1.93076 0.576923 0.0
-1.89958 0 0.0
-1.88703 0.0375 0.0
-1.90963 0.08 0.0
-1.86611 0.0666666 0.0
-1.93749 0.775 0.0
-1.93635 0.672727 0.0
-1.92999 0.72 0.0
-1.93332 0.866667 0.0
-1.92856 0.821429 0.0
-1.94999 1 0.0
-1.92499 0.9625 0.0
-1.92499 0.925 0.0
-1.89998 0.9 0.0
-1.89958 0.125 0.0
-1.92827 0.178571 0.0
-1.89958 0.233333 0.0
-1.89045 0.290909 0.0
-1.86096 0.311538 0.0
-1.89241 0.392857 0.0
-1.89334 0.448489 0.0
-1.85655 0.357143 0.0
-1.89614 0.653846 0.0
-1.89427 0.504121 0.0
-1.8952 0.559753 0.0
-1.89614 0.615385 0.0
-1.84937 0 0.0
-1.83264 0.0333333 0.0
-1.85655 0.107143 0.0
-1.81172 0.075 0.0
-1.89998 0.766667 0.0
-1.89089 0.709091 0.0
-1.87498 0.85 0.0
-1.85998 0.79 0.0
-1.88748 0.8125 0.0
-1.89998 1 0.0
-1.88748 0.9625 0.0
-1.86664 0.933333 0.0
-1.85712 0.892857 0.0
-1.87448 0.15 0.0
-1.86611 0.194444 0.0
-1.83264 0.133333 0.0
-1.83264 0.2625 0.0
-1.82068 0.321429 0.0
-1.85664 0.404762 0.0
-1.85674 0.452381 0.0
-1.85683 0.5 0.0
-1.81184 0.375 0.0
-1.85712 0.642857 0.0
-1.85693 0.547619 0.0
-1.85702 0.595238 0.0
-1.79917 0 0.0
-1.78482 0.0357143 0.0
-1.79917 0.116667 0.0
-1.76569 0.0666666 0.0
-1.85452 0.745455 0.0
-1.82689 0.692308 0.0
-1.81815 0.781818 0.0
-1.82497 0.825 0.0
-1.84997 1 0.0
-1.8333 0.958333 0.0
-1.81247 0.8875 0.0
-1.81247 0.925 0.0
-1.81742 0.218182 0.0
-1.82427 0.175 0.0
-1.77634 0.145455 0.0
-1.79144 0.242308 0.0
-1.78482 0.285714 0.0
-1.77469 0.332653 0.0
-1.81215 0.529762 0.0
-1.81194 0.422619 0.0
-1.81203 0.470238 0.0
-1.76714 0.392857 0.0
-1.81234 0.625 0.0
-1.79732 0.571429 0.0
-1.74896 0 0.0
-1.73222 0.0333333 0.0
-1.75398 0.105 0.0
-1.71883 0.07 0.0
-1.79227 0.730769 0.0
-1.78007 0.679121 0.0
-1.75765 0.769231 0.0
-1.78178 0.818182 0.0
-1.78996 0.86 0.0
-1.79996 1 0.0
-1.78568 0.964286 0.0
-1.76663 0.922222 0.0
-1.76569 0.1875 0.0
-1.73222 0.15 0.0
-1.74896 0.25 0.0
-1.73714 0.304762 0.0
-1.76743 0.537202 0.0
-1.72869 0.343878 0.0
-1.76732 0.485119 0.0
-1.76723 0.440476 0.0
-1.72243 0.410714 0.0
-1.76757 0.607143 0.0
-1.69875 0 0.0
-1.68369 0.035 0.0
-1.69875 0.1125 0.0
-1.66528 0.075 0.0
-1.74341 0.708974 0.0
-1.73324 0.665934 0.0
-1.70441 0.74478 0.0
-1.71423 0.785714 0.0
-1.72303 0.826923 0.0
-1.74541 0.854545 0.0
-1.74541 0.890909 0.0
-1.74996 1 0.0
-1.73745 0.9625 0.0
-1.71359 0.927273 0.0
-1.68716 0.153846 0.0
-1.7131 0.214286 0.0
-1.70725 0.275 0.0
-1.69712 0.321939 0.0
-1.72279 0.589286 0.0
-1.72261 0.5 0.0
-1.7227 0.544643 0.0
-1.6827 0.355102 0.0
-1.67773 0.428571 0.0
-1.70763 0.464286 0.0
-1.70369 0.62449 0.0
-1.64854 0 0.0
-1.63181 0.0375 0.0
-1.64137 0.142857 0.0
-1.61764 0.0769231 0.0
-1.69458 0.703846 0.0
-1.67471 0.657437 0.0
-1.66143 0.727637 0.0
-1.67125 0.768571 0.0
-1.67851 0.821429 0.0
-1.68841 0.861538 0.0
-1.70904 0.890909 0.0
-1.69995 1 0.0
-1.68176 0.963636 0.0
-1.67267 0.927273 0.0
-1.65427 0.187143 0.0
-1.66718 0.231429 0.0
-1.66554 0.3 0.0
-1.67802 0.571429 0.0
-1.67792 0.523809 0.0
-1.6367 0.366327 0.0
-1.63682 0.423469 0.0
-1.62568 0.502976 0.0
-1.6629 0.470238 0.0
-1.65254 0.618367 0.0
-1.6059 0.307143 0.0
-1.59833 0 0.0
-1.58288 0.0384615 0.0
-1.60563 0.169643 0.0
-1.58179 0.112271 0.0
-1.56964 0.0714286 0.0
-1.64574 0.690385 0.0
-1.62827 0.751429 0.0
-1.63371 0.791071 0.0
-1.64279 0.857143 0.0
-1.65378 0.896154 0.0
-1.64994 1 0.0
-1.6363 0.963636 0.0
-1.61916 0.930769 0.0
-1.61345 0.209107 0.0
-1.62126 0.248571 0.0
-1.56989 0.196429 0.0
-1.63324 0.553571 0.0
-1.58846 0.535714 0.0
-1.59408 0.361905 0.0
-1.59161 0.402211 0.0
-1.58832 0.464286 0.0
-1.61504 0.598581 0.0
-1.59683 0.64359 0.0
-1.57899 0.274107 0.0
-1.56176 0.322381 0.0
-1.54812 0 0.0
-1.53378 0.0357143 0.0
-1.54593 0.147619 0.0
-1.53385 0.0732143 0.0
-1.53393 0.110714 0.0
-1.58522 0.704286 0.0
-1.58709 0.745 0.0
-1.58896 0.785714 0.0
-1.60695 0.830357 0.0
-1.60707 0.892857 0.0
-1.59993 1 0.0
-1.58454 0.965385 0.0
-1.57135 0.928571 0.0
-1.55209 0.241071 0.0
-1.5291 0.198214 0.0
-1.56936 0.570918 0.0
-1.54369 0.517857 0.0
-1.5464 0.380952 0.0
-1.54564 0.427721 0.0
-1.54488 0.47449 0.0
-1.55026 0.606122 0.0
-1.54222 0.677143 0.0
-1.52943 0.282857 0.0
-1.52143 0.33619 0.0
-1.49792 0 0.0
-1.49802 0.05 0.0
-1.49822 0.15 0.0
-1.49312 0.1 0.0
-1.5423 0.717143 0.0
-1.54419 0.767857 0.0
-1.54727 0.819048 0.0
-1.57122 0.861905 0.0
-1.53553 0.914286 0.0
-1.54992 1 0.0
-1.53563 0.964286 0.0
-1.49842 0.25 0.0
-1.48831 0.2 0.0
-1.5214 0.558929 0.0
-1.49891 0.5 0.0
-1.49871 0.4 0.0
-1.47631 0.45 0.0
-1.49911 0.6 0.0
-1.49921 0.65 0.0
-1.49931 0.7 0.0
-1.48111 0.35 0.0
-1.48351 0.3 0.0
-1.44771 0 0.0
-1.44782 0.05 0.0
-1.44804 0.15 0.0
-1.44793 0.1 0.0
-1.49941 0.75 0.0
-1.49951 0.8 0.0
-1.49981 0.95 0.0
-1.49961 0.85 0.0
-1.49971 0.9 0.0
-1.49991 1 0.0
-1.44826 0.25 0.0
-1.43815 0.2 0.0
-1.47151 0.55 0.0
-1.44881 0.5 0.0
-1.44859 0.4 0.0
-1.42619 0.45 0.0
-1.44913 0.65 0.0
-1.44902 0.6 0.0
-1.44935 0.75 0.0
-1.44924 0.7 0.0
-1.43972 0.35 0.0
-1.43336 0.3 0.0
-1.3975 0 0.0
-1.39762 0.05 0.0
-1.39786 0.15 0.0
-1.39274 0.1 0.0
-1.44957 0.85 0.0
-1.44946 0.8 0.0
-1.4523 0.95 0.0
-1.44968 0.9 0.0
-1.4499 1 0.0
-1.3981 0.25 0.0
-1.38798 0.2 0.0
-1.42141 0.55 0.0
-1.3987 0.5 0.0
-1.39834 0.35 0.0
-1.37845 0.4 0.0
-1.37607 0.45 0.0
-1.40784 0.65 0.0
-1.39894 0.6 0.0
-1.41185 0.75 0.0
-1.39918 0.7 0.0
-1.38322 0.3 0.0
-1.34729 0 0.0
-1.34492 0.05 0.0
-1.34018 0.15 0.0
-1.34255 0.1 0.0
-1.40707 0.85 0.0
-1.39941 0.8 0.0
-1.39977 0.95 0.0
-1.39965 0.9 0.0
-1.39989 1 0.0
-1.33781 0.2 0.0
-1.33544 0.25 0.0
-1.37131 0.55 0.0
-1.34859 0.5 0.0
-1.33833 0.4 0.0
-1.3307 0.35 0.0
-1.32595 0.45 0.0
-1.34885 0.6 0.0
-1.36655 0.65 0.0
-1.36179 0.75 0.0
-1.34911 0.7 0.0
-1.33307 0.3 0.0
-1.29708 0 0.0
-1.29722 0.05 0.0
-1.2975 0.15 0.0
-1.29236 0.1 0.0
-1.35703 0.85 0.0
-1.34937 0.8 0.0
-1.34988 1 0.0
-1.34962 0.9 0.0
-1.35226 0.95 0.0
-1.28528 0.25 0.0
-1.28764 0.2 0.0
-1.28931 0.35 0.0
-1.32121 0.55 0.0
-1.29848 0.5 0.0
-1.28709 0.45 0.0
-1.2982 0.4 0.0
-1.29876 0.6 0.0
-1.31647 0.65 0.0
-1.29918 0.75 0.0
-1.29904 0.7 0.0
-1.28292 0.3 0.0
-1.24687 0 0.0
-1.24702 0.05 0.0
-1.24717 0.1 0.0
-1.24732 0.15 0.0
-1.29946 0.85 0.0
-1.29932 0.8 0.0
-1.29987 1 0.0
-1.29974 0.95 0.0
-1.30462 0.9 0.0
-1.24762 0.25 0.0
-1.23747 0.2 0.0
-1.24792 0.35 0.0
-1.22807 0.4 0.0
-1.27111 0.55 0.0
-1.24837 0.5 0.0
-1.24822 0.45 0.0
-1.24867 0.6 0.0
-1.26639 0.65 0.0
-1.26167 0.75 0.0
-1.24897 0.7 0.0
-1.23277 0.3 0.0
-1.19667 0 0.0
-1.19683 0.05 0.0
-1.18964 0.15 0.0
-1.19198 0.1 0.0
-1.25695 0.85 0.0
-1.24927 0.8 0.0
-1.25223 0.95 0.0
-1.24987 1 0.0
-1.24957 0.9 0.0
-1.1873 0.2 0.0
-1.18496 0.25 0.0
-1.18028 0.35 0.0
-1.17794 0.4 0.0
-1.1981 0.45 0.0
-1.19842 0.55 0.0
-1.19826 0.5 0.0
-1.19858 0.6 0.0
-1.19874 0.65 0.0
-1.19906 0.75 0.0
-1.1989 0.7 0.0
-1.18262 0.3 0.0
-1.14646 0 0.0
-1.14663 0.05 0.0
-1.1418 0.1 0.0
-1.13713 0.2 0.0
-1.14697 0.15 0.0
-1.20691 0.85 0.0
-1.20926 0.8 0.0
-1.20221 0.95 0.0
-1.19986 1 0.0
-1.20456 0.9 0.0
-1.13997 0.3 0.0
-1.14731 0.25 0.0
-1.13781 0.4 0.0
-1.13014 0.35 0.0
-1.12548 0.45 0.0
-1.14815 0.5 0.0
-1.15962 0.55 0.0
-1.14849 0.6 0.0
-1.15745 0.65 0.0
-1.16155 0.75 0.0
-1.14917 0.8 0.0
-1.14883 0.7 0.0
-1.09625 0 0.0
-1.09661 0.1 0.0
-1.09393 0.05 0.0
-1.09697 0.2 0.0
-1.08929 0.15 0.0
-1.15687 0.85 0.0
-1.14985 1 0.0
-1.15219 0.95 0.0
-1.14951 0.9 0.0
-1.09733 0.3 0.0
-1.08465 0.25 0.0
-1.09769 0.4 0.0
-1.08 0.35 0.0
-1.08661 0.45 0.0
-1.09804 0.5 0.0
-1.12082 0.55 0.0
-1.10916 0.8 0.0
-1.10629 0.7 0.0
-1.0984 0.6 0.0
-1.11616 0.65 0.0
-1.11149 0.75 0.0
-1.04604 0 0.0
-1.04623 0.05 0.0
-1.04642 0.1 0.0
-1.0468 0.2 0.0
-1.03911 0.15 0.0
-1.09948 0.9 0.0
-1.0993 0.85 0.0
-1.09984 1 0.0
-1.09966 0.95 0.0
-1.04718 0.3 0.0
-1.03449 0.25 0.0
-1.04756 0.4 0.0
-1.02986 0.35 0.0
-1.04775 0.45 0.0
-1.04794 0.5 0.0
-1.04813 0.55 0.0
-1.05911 0.8 0.0
-1.04831 0.6 0.0
-1.06376 0.7 0.0
-1.0485 0.65 0.0
-1.04888 0.75 0.0
-0.995833 0 0.0
-0.991231 0.1 0.0
-0.996033 0.05 0.0
-0.986629 0.2 0.0
-0.98893 0.15 0.0
-1.05447 0.9 0.0
-1.04926 0.85 0.0
-1.04983 1 0.0
-1.04964 0.95 0.0
-0.984328 0.25 0.0
-0.99703 0.3 0.0
-0.997429 0.4 0.0
-0.997628 0.45 0.0
-0.979726 0.35 0.0
-0.997827 0.5 0.0
-0.998027 0.55 0.0
-0.998226 0.6 0.0
-0.961416 0.475 0.0
-1.00907 0.8 0.0
-0.998426 0.65 0.0
-0.998625 0.7 0.0
-1.01138 0.75 0.0
-0.945625 0 0.0
-0.946044 0.1 0.0
-0.943334 0.05 0.0
-0.946463 0.2 0.0
-0.938752 0.15 0.0
-1.00444 0.9 0.0
-1.00675 0.85 0.0
-0.999821 1 0.0
-1.00213 0.95 0.0
-0.93417 0.25 0.0
-0.946881 0.3 0.0
-0.9473 0.4 0.0
-0.929588 0.35 0.0
-0.925005 0.45 0.0
-0.960371 0.525 0.0
-0.959325 0.575 0.0
-0.958279 0.625 0.0
-0.922714 0.5 0.0
-0.959017 0.8 0.0
-0.957233 0.675 0.0
-0.952999 0.7125 0.0
-0.948766 0.75 0.0
-0.895417 0 0.0
-0.895855 0.1 0.0
-0.893136 0.05 0.0
-0.896294 0.2 0.0
-0.888573 0.15 0.0
-0.949184 0.85 0.0
-0.954415 0.9 0.0
-0.949812 1 0.0
-0.949603 0.95 0.0
-0.884011 0.25 0.0
-0.896733 0.3 0.0
-0.874887 0.45 0.0
-0.879449 0.35 0.0
-0.897171 0.4 0.0
-0.920423 0.55 0.0
-0.918132 0.6 0.0
-0.915841 0.65 0.0
-0.872606 0.5 0.0
-0.908968 0.8 0.0
-0.91355 0.7 0.0
-0.898707 0.75 0.0
-0.845208 0 0.0
-0.845438 0.05 0.0
-0.845667 0.1 0.0
-0.845896 0.15 0.0
-0.833853 0.25 0.0
-0.846126 0.2 0.0
-0.899146 0.85 0.0
-0.904386 0.9 0.0
-0.899584 0.95 0.0
-0.899804 1 0.0
-0.838062 0.35 0.0
[...]
POINT_DATA 10839
VECTORS Velocity float
0.21 0 0.0
0.24 0 0.0
0.2275 0 0.0
0.2475 0 0.0
0.25 0 0.0
0.2475 0 0.0
0 0 0.0
0.0475 0 0.0
0.1275 0 0.0
0.09 0 0.0
0.09 0 0.0
0.1275 0 0.0
0.1875 0 0.0
0.16 0 0.0
0.195557 -2.41507e-05 0.0
0.242841 -3.29684e-05 0.0
0.215776 -2.87555e-05 0.0
0.231406 -3.24239e-05 0.0
0.248725 -3.5105e-05 0.0
0.24 0 0.0
0.24284 -3.28941e-05 0.0
0.24852 -3.38066e-05 0.0
0 0 0.0
0.0622239 -4.19592e-06 0.0
0.032227 -2.77316e-06 0.0
0.16 0 0.0
0.1875 0 0.0
0.21 0 0.0
0.2275 0 0.0
0.193592 -2.71087e-05 0.0
0.138887 -1.50353e-05 0.0
0 0 0.0
0.0475 0 0.0
0.0998415 -1.04344e-05 0.0
0.0622206 -4.24288e-06 0.0
0.0998462 -1.09038e-05 0.0
0.138891 -1.51703e-05 0.0
0.17438 -3.80657e-05 0.0
0.201606 -5.21727e-05 0.0
0.235787 -6.3733e-05 0.0
0.244085 -6.66959e-05 0.0
0.223602 -8.54593e-05 0.0
0.249751 -6.9689e-05 0.0
0.249044 -7.76631e-05 0.0
0.231404 -3.29509e-05 0.0
0.244081 -6.59045e-05 0.0
0 0 0.0
0.0361081 -5.37246e-06 0.0
0.0736127 -1.50296e-05 0.0
0.0622492 -1.64792e-05 0.0
0.17437 -3.75028e-05 0.0
0.220162 -5.21601e-05 0.0
0.201594 -5.22489e-05 0.0
0.115548 -2.24613e-05 0.0
0.146676 -3.48326e-05 0.0
0 0 0.0
0.0360874 -3.61561e-06 0.0
0.069366 -1.17429e-05 0.0
0.0899834 -2.33348e-05 0.0
0.109391 -3.15857e-05 0.0
0.146692 -3.41613e-05 0.0
0.178902 -6.38812e-05 0.0
0.206293 -8.35818e-05 0.0
0.214501 -0.00011271 0.0
0.238527 -9.99669e-05 0.0
0.24735 -0.000104109 0.0
0.229607 -0.000127305 0.0
0.226323 -8.98013e-05 0.0
0.249983 -0.000104626 0.0
0.246426 -0.000101783 0.0
0.23668 -9.5815e-05 0.0
0 0 0.0
0.0322506 -6.0795e-06 0.0
0.0956968 -3.58951e-05 0.0
0.0694295 -2.70583e-05 0.0
0.178876 -6.29049e-05 0.0
0.206269 -8.42113e-05 0.0
0.127476 -4.84736e-05 0.0
0.165873 -7.96532e-05 0.0
0.152325 -5.69906e-05 0.0
0 0 0.0
0.0360796 -5.20325e-06 0.0
0.0621957 -1.63031e-05 0.0
0.0956298 -3.65692e-05 0.0
0.127525 -4.8945e-05 0.0
0.156661 -7.11628e-05 0.0
0.115601 -5.62336e-05 0.0
0.193627 -0.000117534 0.0
0.218142 -0.000148822 0.0
0.24094 -0.000135666 0.0
0.247737 -0.000140712 0.0
0.25 -0.000142253 0.0
0.234398 -0.000172357 0.0
0.229576 -0.000125544 0.0
0.247727 -0.000140402 0.0
0.240919 -0.000135427 0.0
0 0 0.0
0.0344873 -8.43028e-06 0.0
0.103121 -5.52823e-05 0.0
0.0623034 -2.74267e-05 0.0
0.189727 -9.98253e-05 0.0
0.212988 -0.000139581 0.0
0.170534 -0.000108152 0.0
0.144329 -8.02213e-05 0.0
0 0 0.0
0.039898 -8.97197e-06 0.0
0.0997859 -5.02224e-05 0.0
0.069321 -2.66099e-05 0.0
0.170625 -0.000108283 0.0
0.144422 -8.19581e-05 0.0
0.124378 -8.31693e-05 0.0
0.18365 -0.000137001 0.0
0.204132 -0.000164107 0.0
0.222039 -0.000193314 0.0
0.249109 -0.000186923 0.0
0.244027 -0.000181927 0.0
0.24912 -0.000186931 0.0
0.238551 -0.000219652 0.0
0.234353 -0.000171344 0.0
0.244882 -0.000197096 0.0
0 0 0.0
0.032292 -8.93657e-06 0.0
0.0940747 -5.81577e-05 0.0
0.0652178 -3.47437e-05 0.0
0.196696 -0.000149841 0.0
0.217871 -0.000184212 0.0
0.177437 -0.000152157 0.0
0.148689 -0.000106047 0.0
0.120329 -7.4172e-05 0.0
0 0 0.0
0.0343907 -8.51051e-06 0.0
0.0716439 -3.48328e-05 0.0
0.152425 -0.000119003 0.0
0.127615 -0.000103405 0.0
0.187579 -0.000170092 0.0
0.211951 -0.000211999 0.0
0.248605 -0.000232255 0.0
0.225686 -0.000240275 0.0
0.249783 -0.000233942 0.0
0.246474 -0.00022999 0.0
0.242065 -0.000269384 0.0
0.23849 -0.000219036 0.0
0 0 0.0
0.0338744 -1.1215e-05 0.0
0.0999939 -7.78134e-05 0.0
0.0695459 -4.63262e-05 0.0
0.20626 -0.000198442 0.0
0.222404 -0.000231431 0.0
0.189974 -0.000206341 0.0
0.168253 -0.000166544 0.0
0.143003 -0.000127657 0.0
0.124193 -9.40986e-05 0.0
0.0970834 -6.31492e-05 0.0
0 0 0.0
0.0360208 -1.08535e-05 0.0
0.0673144 -3.73642e-05 0.0
0.130336 -0.00012512 0.0
0.168483 -0.000167359 0.0
0.199473 -0.000218463 0.0
0.218379 -0.000256509 0.0
0.241992 -0.000270049 0.0
0.25 -0.000281914 0.0
0.247989 -0.000278622 0.0
0.229082 -0.00028956 0.0
0.244938 -0.000321095 0.0
0.248741 -0.000295913 0.0
0.234445 -0.000276775 0.0
0 0 0.0
0.0362329 -1.44771e-05 0.0
0.12266 -0.000128304 0.0
0.0712304 -5.48618e-05 0.0
0.208349 -0.000242988 0.0
0.225125 -0.000289378 0.0
0.198047 -0.000252431 0.0
0.177724 -0.000208925 0.0
0.146524 -0.000153941 0.0
0.119131 -0.000107437 0.0
0.0970503 -7.17008e-05 0.0
0 0 0.0
0.0349386 -1.21624e-05 0.0
0.0672769 -4.21067e-05 0.0
0.152303 -0.000175132 0.0
0.178019 -0.000213871 0.0
0.210117 -0.000270691 0.0
0.244858 -0.000321022 0.0
0.24942 -0.000329796 0.0
0.232226 -0.000340954 0.0
0.244198 -0.000365593 0.0
0.249988 -0.00039033 0.0
0.249132 -0.000346609 0.0
0.235912 -0.000331826 0.0
0.212965 -0.000330942 0.0
0 0 0.0
0.0371619 -1.70728e-05 0.0
0.141112 -0.000178798 0.0
0.0999599 -0.000108017 0.0
0.0666013 -5.34965e-05 0.0
0.213628 -0.000295973 0.0
0.186605 -0.000257667 0.0
0.165083 -0.000209601 0.0
0.122239 -0.000128988 0.0
0.0928646 -7.87227e-05 0.0
0 0 0.0
0.0349088 -1.35909e-05 0.0
0.0642255 -4.47475e-05 0.0
0.165599 -0.000224132 0.0
0.186969 -0.000263454 0.0
0.158126 -0.000234654 0.0
0.247091 -0.000375495 0.0
0.248691 -0.000431915 0.0
0.231053 -0.000383135 0.0
0.240527 -0.00040893 0.0
0.248758 -0.000431541 0.0
0.240202 -0.000382031 0.0
0.229255 -0.000375453 0.0
0.199184 -0.00032408 0.0
0.218636 -0.000387505 0.0
0 0 0.0
0.0346497 -1.67587e-05 0.0
0.126173 -0.00017388 0.0
0.0681803 -6.04933e-05 0.0
0.0988227 -0.000117708 0.0
0.208081 -0.000338896 0.0
0.189757 -0.000295407 0.0
0.168123 -0.000245126 0.0
0.140617 -0.000177443 0.0
0.0954069 -9.37373e-05 0.0
0 0 0.0
0.0332527 -1.39184e-05 0.0
0.0660543 -5.33189e-05 0.0
0.183226 -0.000306299 0.0
0.159266 -0.000262768 0.0
0.244897 -0.00044543 0.0
0.24966 -0.000489121 0.0
0.235963 -0.000448636 0.0
0.244859 -0.000474226 0.0
0.249378 -0.000487896 0.0
0.238619 -0.000451125 0.0
0.218418 -0.000407752 0.0
0.203107 -0.000378364 0.0
0.223373 -0.000443265 0.0
0 0 0.0
0.0478074 -3.3493e-05 0.0
0.127925 -0.000198373 0.0
0.0904276 -0.000110534 0.0
0.202605 -0.000364491 0.0
0.177963 -0.000299721 0.0
0.147884 -0.000224828 0.0
0.118717 -0.000147291 0.0
0.0780245 -7.86912e-05 0.0
0 0 0.0
0.0342307 -1.64077e-05 0.0
0.187836 -0.000362884 0.0
0.160405 -0.000292514 0.0
0.246451 -0.000509271 0.0
0.25 -0.000548824 0.0
0.240141 -0.000518205 0.0
0.247578 -0.000571425 0.0
0.239858 -0.00051784 0.0
0.22729 -0.000479468 0.0
0.209726 -0.00042654 0.0
0.227726 -0.000503229 0.0
0.210293 -0.000444447 0.0
0 0 0.0
0.0478714 -3.73631e-05 0.0
0.128021 -0.000221562 0.0
0.0905106 -0.000121569 0.0
0.187166 -0.000361033 0.0
0.159614 -0.000282931 0.0
0.0471966 -3.28268e-05 0.0
0.127079 -0.000195645 0.0
0.0895854 -0.000108182 0.0
0 0 0.0
0.187912 -0.00040797 0.0
0.160497 -0.000327521 0.0
0.247419 -0.000577998 0.0
0.249999 -0.000618581 0.0
0.240174 -0.00058442 0.0
0.247595 -0.0006426 0.0
0.227242 -0.000540072 0.0
0.239825 -0.000583348 0.0
0.187089 -0.000405767 0.0
0.209662 -0.00048012 0.0
0.227767 -0.000552598 0.0
0.210359 -0.000499751 0.0
0 0 0.0
0.0479418 -4.09796e-05 0.0
0.128129 -0.000246427 0.0
0.0906233 -0.000136371 0.0
0.126983 -0.000219327 0.0
0.159526 -0.00031759 0.0
0.0471369 -3.64054e-05 0.0
0.0894946 -0.00012027 0.0
0 0 0.0
0.188 -0.000455745 0.0
0.160599 -0.000365218 0.0
0.247401 -0.000648961 0.0
0.249999 -0.000693218 0.0
0.227812 -0.00060632 0.0
0.240226 -0.000683755 0.0
0.247614 -0.000719374 0.0
0.227196 -0.000591459 0.0
0.239788 -0.000653683 0.0
0.187025 -0.000440171 0.0
0.20959 -0.000537305 0.0
0.210433 -0.000558798 0.0
0 0 0.0
0.0480244 -4.5577e-05 0.0
0.128268 -0.000277272 0.0
0.0907381 -0.000150662 0.0
0.126893 -0.000239629 0.0
0.159425 -0.000353745 0.0
0.0470644 -4.04354e-05 0.0
0.0893941 -0.000132789 0.0
0 0 0.0
0.160714 -0.000405232 0.0
0.188124 -0.000519745 0.0
0.247381 -0.000725035 0.0
0.249999 -0.000773347 0.0
0.240261 -0.000746787 0.0
0.227897 -0.000701469 0.0
0.247636 -0.000800807 0.0
0.239746 -0.000728635 0.0
0.227148 -0.000647526 0.0
0.18693 -0.00048975 0.0
0.20951 -0.000598102 0.0
0.210516 -0.000622646 0.0
0 0 0.0
0.0481075 -5.02912e-05 0.0
0.128383 -0.000302389 0.0
0.0908649 -0.000166263 0.0
0.126776 -0.000265221 0.0
0.159314 -0.000392807 0.0
0 0 0.0
0.0892818 -0.000146862 0.0
0.0469913 -4.44261e-05 0.0
0.188236 -0.000578211 0.0
0.160843 -0.000449259 0.0
0.227956 -0.00076497 0.0
0.247358 -0.000807537 0.0
0.249998 -0.000860176 0.0
0.247654 -0.000869514 0.0
0.240298 -0.000812702 0.0
0.239699 -0.00080988 0.0
0.227081 -0.000720171 0.0
0.186795 -0.00055663 0.0
0.20942 -0.000664598 0.0
0.21061 -0.000690882 0.0
0 0 0.0
0.0482021 -5.54581e-05 0.0
0.0909905 -0.000181222 0.0
0.128531 -0.000333667 0.0
0.126625 -0.000297083 0.0
0.159189 -0.000434767 0.0
0 0 0.0
0.0469036 -4.88477e-05 0.0
0.0891718 -0.00015982 0.0
0.18833 -0.000623735 0.0
0.160986 -0.000497133 0.0
0.228019 -0.000833177 0.0
0.240371 -0.000939072 0.0
0.247333 -0.000897027 0.0
0.249997 -0.000953765 0.0
0.247675 -0.00094184 0.0
0.239646 -0.000897834 0.0
0.227006 -0.000799007 0.0
0.186705 -0.000600838 0.0
0.209319 -0.000735479 0.0
0.210714 -0.000765698 0.0
0 0 0.0
0.0483075 -6.09137e-05 0.0
0.128722 -0.000374542 0.0
0.0911605 -0.000202506 0.0
0.126501 -0.000322873 0.0
0.15905 -0.000480182 0.0
0.0468161 -5.30299e-05 0.0
0 0 0.0
0.0890236 -0.000177284 0.0
0.161144 -0.000549323 0.0
0.1885 -0.000706246 0.0
0.228137 -0.00095499 0.0
0.240432 -0.00104109 0.0
0.247703 -0.00104368 0.0
0.24729 -0.00103798 0.0
0.249996 -0.00105737 0.0
0.239588 -0.000995587 0.0
0.226893 -0.000914235 0.0
0.186539 -0.000679589 0.0
0.209207 -0.00081392 0.0
0.210829 -0.000846655 0.0
0 0 0.0
0.0484224 -6.68754e-05 0.0
0.0913308 -0.000222233 0.0
0.161319 -0.000604727 0.0
0.128879 -0.000406286 0.0
0.126341 -0.000355378 0.0
0.158928 -0.000519252 0.0
0.0467144 -5.85087e-05 0.0
0 0 0.0
0.0888881 -0.000193222 0.0
0.210936 -0.000921785 0.0
0.188617 -0.000762355 0.0
0.240484 -0.00112724 0.0
0.228234 -0.00105827 0.0
0.24775 -0.0012049 0.0
0.249995 -0.00116879 0.0
0.247264 -0.00112201 0.0
0.239522 -0.00110007 0.0
0.226814 -0.000992354 0.0
0.186426 -0.000731588 0.0
0.158726 -0.00058372 0.0
0.209082 -0.000897919 0.0
0 0 0.0
0.0915016 -0.000243121 0.0
0.0485577 -7.44318e-05 0.0
0.161473 -0.000655593 0.0
0.129111 -0.000456065 0.0
0.126165 -0.000391288 0.0
0 0 0.0
0.0466031 -6.42061e-05 0.0
0.0887076 -0.000214228 0.0
0.211055 -0.00100154 0.0
0.188827 -0.000864272 0.0
0.240541 -0.00121998 0.0
0.228344 -0.00116995 0.0
0.247776 -0.0013041 0.0
0.249993 -0.00129179 0.0
0.247237 -0.00121438 0.0
0.158576 -0.000628256 0.0
0.208966 -0.000975408 0.0
0.239449 -0.00121326 0.0
0.226728 -0.00107742 0.0
0.186265 -0.000806922 0.0
0 0 0.0
0.0486911 -8.127e-05 0.0
0.0917058 -0.000267415 0.0
0.161684 -0.000722374 0.0
0.129337 -0.00050319 0.0
0.088525 -0.000234547 0.0
0.12594 -0.000436331 0.0
0 0 0.0
0.0464751 -7.08514e-05 0.0
0.211206 -0.00110559 0.0
0.189018 -0.000954737 0.0
0.240618 -0.00134707 0.0
0.228463 -0.00129278 0.0
0.247807 -0.00141019 0.0
0.249992 -0.00142756 0.0
0.247177 -0.00139852 0.0
0.158374 -0.000690926 0.0
0.239369 -0.00133961 0.0
0.208839 -0.00105682 0.0
0.226573 -0.00123086 0.0
0.186037 -0.000913216 0.0
0 0 0.0
0.0919566 -0.000297749 0.0
0.0488453 -8.94713e-05 0.0
0.161964 -0.000811811 0.0
0.129586 -0.000555015 0.0
0.0883461 -0.000255257 0.0
0.125721 -0.000480727 0.0
0 0 0.0
0.0463398 -7.78942e-05 0.0
0.189227 -0.00105531 0.0
0.211375 -0.00122122 0.0
0.240705 -0.00148904 0.0
0.247849 -0.00155434 0.0
0.228596 -0.00142729 0.0
0.249989 -0.00157308 0.0
0.247132 -0.00154621 0.0
0.23928 -0.00147536 0.0
0.249559 -0.00168676 0.0
0.158148 -0.000759727 0.0
0.226441 -0.00135782 0.0
0.208622 -0.00119835 0.0
0.185886 -0.000981558 0.0
0 0 0.0
0.0921862 -0.000325563 0.0
0.0490264 -9.96963e-05 0.0
0.162174 -0.000879429 0.0
0.129861 -0.000612205 0.0
0.0881289 -0.000280234 0.0
0.125519 -0.000521343 0.0
0 0 0.0
0.0462001 -8.52347e-05 0.0
0.189459 -0.00116527 0.0
0.211561 -0.00134901 0.0
0.240795 -0.00164206 0.0
0.228743 -0.00157804 0.0
0.247916 -0.00179482 0.0
0.249163 -0.00168608 0.0
0.24377 -0.00163604 0.0
0.233386 -0.0015365 0.0
0.249984 -0.00182486 0.0
0.157901 -0.000835308 0.0
0.218018 -0.00139147 0.0
0.203211 -0.00125854 0.0
0.18561 -0.00110483 0.0
0 0 0.0
0.0924615 -0.000358995 0.0
0.0492142 -0.000109289 0.0
0.162458 -0.000971564 0.0
0.130166 -0.000676313 0.0
0.125218 -0.000581436 0.0
0.0878893 -0.000308237 0.0
0 0 0.0
0.0460313 -9.34163e-05 0.0
0.189717 -0.00128799 0.0
0.211767 -0.0014906 0.0
0.247964 -0.00197879 0.0
0.228903 -0.00174313 0.0
0.240902 -0.00181429 0.0
0.247048 -0.00180126 0.0
0.239116 -0.00172368 0.0
0.226194 -0.00159357 0.0
0.249975 -0.00201248 0.0
0.157627 -0.000919738 0.0
0.208294 -0.00141182 0.0
0.18536 -0.0012164 0.0
0 0 0.0
0.0494121 -0.000119756 0.0
0.0927665 -0.000397012 0.0
0.13045 -0.000735801 0.0
0.19 -0.00142213 0.0
0.162774 -0.00107391 0.0
0.124927 -0.000639384 0.0
0.0876255 -0.00033932 0.0
0.0458518 -0.000102804 0.0
0 0 0.0
0.229049 -0.00189395 0.0
0.211994 -0.00164973 0.0
0.248008 -0.00213823 0.0
0.241014 -0.00200675 0.0
0.226022 -0.00175346 0.0
0.246983 -0.00198469 0.0
0.238994 -0.00189834 0.0
0.249969 -0.00221933 0.0
0.18509 -0.00133656 0.0
0.157266 -0.00102867 0.0
0.208 -0.00159786 0.0
0 0 0.0
0.0496416 -0.000132875 0.0
0.093141 -0.00044333 0.0
0.130817 -0.000812619 0.0
0.190232 -0.00153787 0.0
0.163196 -0.00121729 0.0
0.124609 -0.00070213 0.0
0.0873073 -0.00037681 0.0
0.0456565 -0.000112724 0.0
0 0 0.0
0.124258 -0.000773197 0.0
0.229205 -0.00205238 0.0
0.212324 -0.00188654 0.0
0.241188 -0.00231136 0.0
0.248053 -0.00230699 0.0
0.225762 -0.00199328 0.0
0.238864 -0.00208831 0.0
0.246913 -0.00218853 0.0
0.249955 -0.00244756 0.0
0.184791 -0.00146841 0.0
0.156929 -0.00113402 0.0
0.207749 -0.00176014 0.0
0 0 0.0
0.049895 -0.000146765 0.0
0.0935208 -0.000491466 0.0
0.131224 -0.000901127 0.0
0.190573 -0.00170152 0.0
0.163595 -0.00135167 0.0
0.0454373 -0.000125359 0.0
0.0869828 -0.000415926 0.0
0 0 0.0
0.123935 -0.000836115 0.0
0.229413 -0.00227547 0.0
0.212611 -0.00209243 0.0
0.241328 -0.0025558 0.0
0.248111 -0.00255089 0.0
0.22558 -0.00215751 0.0
0.23872 -0.00229696 0.0
0.249941 -0.00270095 0.0
0.246793 -0.00251896 0.0
0.184546 -0.00157253 0.0
0.15656 -0.00124595 0.0
0.207471 -0.00193205 0.0
0 0 0.0
0.0501735 -0.00016209 0.0
0.0939397 -0.000544395 0.0
0.131746 -0.00101506 0.0
0.191044 -0.00193724 0.0
0.212924 -0.00232514 0.0
0.164032 -0.00150467 0.0
0.0452127 -0.000137358 0.0
0.0866303 -0.000457392 0.0
0 0 0.0
0.12352 -0.000917891 0.0
0.229721 -0.00260915 0.0
0.241446 -0.00277633 0.0
0.248174 -0.00282017 0.0
0.249923 -0.00291065 0.0
0.225388 -0.00232936 0.0
0.23855 -0.00253011 0.0
0.246695 -0.00277449 0.0
0.156155 -0.00136829 0.0
0.184194 -0.00172528 0.0
0.207164 -0.00211921 0.0
0 0 0.0
0.0505042 -0.000181842 0.0
0.0944109 -0.000608528 0.0
0.132261 -0.00113461 0.0
0.191364 -0.0021027 0.0
0.213267 -0.00258169 0.0
0.164521 -0.00167806 0.0
0.0449512 -0.00015076 0.0
0.0862421 -0.000502624 0.0
0 0 0.0
0.155806 -0.00146555 0.0
0.0858192 -0.000549039 0.0
0.122996 -0.00101794 0.0
0.229977 -0.00290972 0.0
0.241569 -0.00300544 0.0
0.248265 -0.00326221 0.0
0.249906 -0.00313062 0.0
0.246611 -0.00299201 0.0
0.225129 -0.00255446 0.0
0.23829 -0.00288943 0.0
0.183703 -0.00192977 0.0
0.206879 -0.00229579 0.0
0.230206 -0.00316853 0.0
0 0 0.0
0.050855 -0.000203485 0.0
0.132834 -0.00127302 0.0
0.0949367 -0.000683994 0.0
0.213649 -0.00288147 0.0
0.191942 -0.00241033 0.0
0.165064 -0.00187692 0.0
0.0446516 -0.000165651 0.0
0 0 0.0
0.183378 -0.00206618 0.0
0.155331 -0.00160179 0.0
0.122491 -0.00111371 0.0
0.0443327 -0.00018301 0.0
0.0853536 -0.000601228 0.0
0.241739 -0.00333443 0.0
0.248314 -0.00353125 0.0
0.249866 -0.00345502 0.0
0.249834 -0.00372445 0.0
0.246511 -0.00322227 0.0
0.224836 -0.00280291 0.0
0.238063 -0.00317549 0.0
0.206566 -0.00247246 0.0
0.23044 -0.0034575 0.0
0.0512322 -0.000229119 0.0
0 0 0.0
0.133374 -0.00140535 0.0
0.0955244 -0.000769889 0.0
0.214061 -0.00321767 0.0
0.192331 -0.0026262 0.0
0.165669 -0.00210871 0.0
0 0 0.0
0.182912 -0.00224735 0.0
0.154704 -0.00176989 0.0
0.122033 -0.00119024 0.0
0.0440076 -0.000198625 0.0
0.0848504 -0.000653892 0.0
0.241981 -0.00386269 0.0
0.248364 -0.00381429 0.0
0.249786 -0.00400738 0.0
0.246301 -0.0036928 0.0
0.224515 -0.0030659 0.0
0.237819 -0.00348418 0.0
0.206037 -0.00277372 0.0
0.23076 -0.0038575 0.0
0 0 0.0
0.0516755 -0.00026134 0.0
0.134078 -0.00158926 0.0
0.096125 -0.000863951 0.0
0.166339 -0.00237288 0.0
0.214514 -0.00360539 0.0
0.193039 -0.00302984 0.0
0 0 0.0
0 0 0.0
0.182395 -0.00244361 0.0
0.154127 -0.00192089 0.0
0.121447 -0.00128947 0.0
0.0843062 -0.000707512 0.0
0.0436358 -0.000214592 0.0
0.242166 -0.00429352 0.0
0.248414 -0.004226 0.0
0.237593 -0.00374919 0.0
0.249712 -0.00441932 0.0
0.246116 -0.00406626 0.0
0.22415 -0.00335412 0.0
0.205573 -0.00301884 0.0
0.242312 -0.00468076 0.0
0.231083 -0.00430865 0.0
0.0521755 -0.000296231 0.0
0.0968658 -0.000979487 0.0
0.134874 -0.00180972 0.0
0.166934 -0.00262486 0.0
0.215008 -0.00404257 0.0
0.193508 -0.00332489 0.0
0 0 0.0
0 0 0.0
0.15363 -0.00203383 0.0
0.181681 -0.0026915 0.0
0.0837798 -0.000752505 0.0
0.120716 -0.00140123 0.0
0.0432322 -0.000232688 0.0
0.248479 -0.0048862 0.0
0.249603 -0.00487911 0.0
0.205065 -0.003277 0.0
0.23734 -0.00402479 0.0
0.245956 -0.00437924 0.0
0.223588 -0.00376748 0.0
0.242465 -0.00508667 0.0
0.231571 -0.00501185 0.0
0.215535 -0.00454692 0.0
0.0527859 -0.000342102 0.0
0.0977142 -0.00112772 0.0
0.135911 -0.00211123 0.0
0.167752 -0.00297411 0.0
0.194364 -0.00387652 0.0
0 0 0.0
0 0 0.0
0.15282 -0.00221086 0.0
0.181041 -0.00290519 0.0
0.0830954 -0.000808412 0.0
0.120028 -0.00149564 0.0
0.0427836 -0.000248764 0.0
0.245769 -0.00471222 0.0
0.249468 -0.00537332 0.0
0.248487 -0.00542278 0.0
0.204497 -0.00354617 0.0
0.23699 -0.00440255 0.0
0.223106 -0.00410957 0.0
0.180339 -0.00311888 0.0
0.242708 -0.00590717 0.0
0 0 0.0
0.231926 -0.00562999 0.0
0.195125 -0.00440549 0.0
0.216096 -0.00511704 0.0
0.0534328 -0.000397329 0.0
0.136788 -0.00238628 0.0
0.0987979 -0.00133351 0.0
0.168849 -0.00350041 0.0
0 0 0.0
0 0 0.0
0 0 0.0
0 0 0.0
0 0 0.0
0.0423508 -0.000261592 0.0
0.119286 -0.0015897 0.0
0.152076 -0.00236183 0.0
0.0824957 -0.000853332 0.0
0.245485 -0.0051618 0.0
0.249285 -0.00592097 0.0
0.248481 -0.00601321 0.0
0.22266 -0.00438737 0.0
0.203859 -0.00382668 0.0
0.236396 -0.0049705 0.0
0.203265 -0.00407012 0.0
0.179763 -0.00327532 0.0
0.242856 -0.00659201 0.0
0.2323 -0.00630791 0.0
0 0 0.0
9.17918e-05 -4.11498e-05 0.0
0 0 0.0
-0.000252104 0.00118028 0.0
0.2167 -0.00578041 0.0
0.195747 -0.00485112 0.0
0.0542572 -0.000472754 0.0
0.137936 -0.0027587 0.0
0.0999412 -0.00156366 0.0
0.169891 -0.00402805 0.0
0 0 0.0
0 0 0.0
0 0 0.0
-0.00017587 0.000536658 0.0
8.71273e-06 -0.000160533 0.0
9.44936e-05 -0.00011134 0.0
0 0 0.0
0.0418656 -0.000276902 0.0
0.118623 -0.00166167 0.0
0.151271 -0.00250591 0.0
0.0817273 -0.000903249 0.0
0.245153 -0.00566066 0.0
0.249048 -0.00651742 0.0
0.248432 -0.00665895 0.0
0.222167 -0.00468612 0.0
0.236002 -0.0053328 0.0
0.202608 -0.00431277 0.0
0.178717 -0.00353697 0.0
0.242988 -0.00734375 0.0
0.235697 -0.00711121 0.0
0.225559 -0.00672461 0.0
0 0 0.0
0.000176804 -2.51326e-05 0.0
0 0 0.0
0 0 0.0
-0.00092309 0.002924 0.0
-0.000831654 0.00176195 0.0
0.212547 -0.00622198 0.0
0.19662 -0.00553551 0.0
0.101133 -0.00181796 0.0
0.0551466 -0.000568452 0.0
0.139236 -0.00321874 0.0
0.17103 -0.00465041 0.0
0 0 0.0
-0.000230887 0.000133832 0.0
-0.000519325 0.000764556 0.0
-8.21736e-05 -3.30924e-05 0.0
1.64157e-05 4.16296e-05 0.0
0 0 0.0
0.0413582 -0.000290755 0.0
0.117796 -0.00174235 0.0
0.150407 -0.00263762 0.0
0.0809866 -0.000945306 0.0
0.244748 -0.00619308 0.0
0.248752 -0.00716346 0.0
0.248333 -0.00736878 0.0
0.221244 -0.00520358 0.0
0.235553 -0.0056986 0.0
0.201751 -0.00461373 0.0
0.149472 -0.00277683 0.0
0.177781 -0.00375275 0.0
0.243063 -0.00799634 0.0
0.232898 -0.00764076 0.0
0.217774 -0.00714923 0.0
0 0 0.0
9.86412e-05 5.55551e-05 0.0
0 0 0.0
0 0 0.0
0 0 0.0
0 0 0.0
-0.00144532 0.00190863 0.0
-0.000280127 0.00265627 0.0
-0.00098339 0.00396802 0.0
-0.00224505 0.00530214 0.0
-0.00180145 0.0034324 0.0
0 0 0.0
-9.4353e-05 0.00453229 0.0
0.197786 -0.00657173 0.0
0.172023 -0.00525374 0.0
0 0 0.0
0.0563195 -0.000706687 0.0
0.102658 -0.0021801 0.0
0.140949 -0.00391953 0.0
0 0 0.0
0 0 0.0
-0.000774908 0.000783604 0.0
-0.000490033 0.00040588 0.0