# vtk DataFile Version 3.0
Mesh NS-CD Problem
ASCII
DATASET UNSTRUCTURED_GRID
POINTS 10839 float
-2 0.3 0.0
-2 0.4 0.0
-2 0.35 0.0
-2 0.45 0.0
-2 0.5 0.0
-2 0.55 0.0
-2 0 0.0
-2 0.05 0.0
-2 0.85 0.0
-2 0.9 0.0
-2 0.1 0.0
-2 0.15 0.0
-2 0.25 0.0
-2 0.2 0.0
-1.96653 0.266667 0.0
-1.96524 0.415385 0.0
-1.96485 0.315 0.0
-1.96348 0.363636 0.0
-1.96414 0.464286 0.0
-2 0.6 0.0
-1.96538 0.584615 0.0
-1.96538 0.538462 0.0
-1.94979 0 0.0
-1.96653 0.0666666 0.0
-1.93306 0.0333333 0.0
-2 0.8 0.0
-2 0.75 0.0
-2 0.7 0.0
-2 0.65 0.0
-1.96249 0.7375 0.0
-1.96666 0.833333 0.0
-2 1 0.0
-2 0.95 0.0
-1.96249 0.8875 0.0
-1.96666 0.933333 0.0
-1.96234 0.1125 0.0
-1.96653 0.166667 0.0
-1.93724 0.225 0.0
-1.92971 0.28 0.0
-1.93048 0.380769 0.0
-1.93048 0.423077 0.0
-1.89958 0.3375 0.0
-1.9292 0.484203 0.0
-1.92117 0.530907 0.0
-1.96363 0.636364 0.0
-1.93076 0.576923 0.0
-1.89958 0 0.0
-1.88703 0.0375 0.0
-1.90963 0.08 0.0
-1.86611 0.0666666 0.0
-1.93749 0.775 0.0
-1.93635 0.672727 0.0
-1.92999 0.72 0.0
-1.93332 0.866667 0.0
-1.92856 0.821429 0.0
-1.94999 1 0.0
-1.92499 0.9625 0.0
-1.92499 0.925 0.0
-1.89998 0.9 0.0
-1.89958 0.125 0.0
-1.92827 0.178571 0.0
-1.89958 0.233333 0.0
-1.89045 0.290909 0.0
-1.86096 0.311538 0.0
-1.89241 0.392857 0.0
-1.89334 0.448489 0.0
-1.85655 0.357143 0.0
-1.89614 0.653846 0.0
-1.89427 0.504121 0.0
-1.8952 0.559753 0.0
-1.89614 0.615385 0.0
-1.84937 0 0.0
-1.83264 0.0333333 0.0
-1.85655 0.107143 0.0
-1.81172 0.075 0.0
-1.89998 0.766667 0.0
-1.89089 0.709091 0.0
-1.87498 0.85 0.0
-1.85998 0.79 0.0
-1.88748 0.8125 0.0
-1.89998 1 0.0
-1.88748 0.9625 0.0
-1.86664 0.933333 0.0
-1.85712 0.892857 0.0
-1.87448 0.15 0.0
-1.86611 0.194444 0.0
-1.83264 0.133333 0.0
-1.83264 0.2625 0.0
-1.82068 0.321429 0.0
-1.85664 0.404762 0.0
-1.85674 0.452381 0.0
-1.85683 0.5 0.0
-1.81184 0.375 0.0
-1.85712 0.642857 0.0
-1.85693 0.547619 0.0
-1.85702 0.595238 0.0
-1.79917 0 0.0
-1.78482 0.0357143 0.0
-1.79917 0.116667 0.0
-1.76569 0.0666666 0.0
-1.85452 0.745455 0.0
-1.82689 0.692308 0.0
-1.81815 0.781818 0.0
-1.82497 0.825 0.0
-1.84997 1 0.0
-1.8333 0.958333 0.0
-1.81247 0.8875 0.0
-1.81247 0.925 0.0
-1.81742 0.218182 0.0
-1.82427 0.175 0.0
-1.77634 0.145455 0.0
-1.79144 0.242308 0.0
-1.78482 0.285714 0.0
-1.77469 0.332653 0.0
-1.81215 0.529762 0.0
-1.81194 0.422619 0.0
-1.81203 0.470238 0.0
-1.76714 0.392857 0.0
-1.81234 0.625 0.0
-1.79732 0.571429 0.0
-1.74896 0 0.0
-1.73222 0.0333333 0.0
-1.75398 0.105 0.0
-1.71883 0.07 0.0
-1.79227 0.730769 0.0
-1.78007 0.679121 0.0
-1.75765 0.769231 0.0
-1.78178 0.818182 0.0
-1.78996 0.86 0.0
-1.79996 1 0.0
-1.78568 0.964286 0.0
-1.76663 0.922222 0.0
-1.76569 0.1875 0.0
-1.73222 0.15 0.0
-1.74896 0.25 0.0
-1.73714 0.304762 0.0
-1.76743 0.537202 0.0
-1.72869 0.343878 0.0
-1.76732 0.485119 0.0
-1.76723 0.440476 0.0
-1.72243 0.410714 0.0
-1.76757 0.607143 0.0
-1.69875 0 0.0
-1.68369 0.035 0.0
-1.69875 0.1125 0.0
-1.66528 0.075 0.0
-1.74341 0.708974 0.0
-1.73324 0.665934 0.0
-1.70441 0.74478 0.0
-1.71423 0.785714 0.0
-1.72303 0.826923 0.0
-1.74541 0.854545 0.0
-1.74541 0.890909 0.0
-1.74996 1 0.0
-1.73745 0.9625 0.0
-1.71359 0.927273 0.0
-1.68716 0.153846 0.0
-1.7131 0.214286 0.0
-1.70725 0.275 0.0
-1.69712 0.321939 0.0
-1.72279 0.589286 0.0
-1.72261 0.5 0.0
-1.7227 0.544643 0.0
-1.6827 0.355102 0.0
-1.67773 0.428571 0.0
-1.70763 0.464286 0.0
-1.70369 0.62449 0.0
-1.64854 0 0.0
-1.63181 0.0375 0.0
-1.64137 0.142857 0.0
-1.61764 0.0769231 0.0
-1.69458 0.703846 0.0
-1.67471 0.657437 0.0
-1.66143 0.727637 0.0
-1.67125 0.768571 0.0
-1.67851 0.821429 0.0
-1.68841 0.861538 0.0
-1.70904 0.890909 0.0
-1.69995 1 0.0
-1.68176 0.963636 0.0
-1.67267 0.927273 0.0
-1.65427 0.187143 0.0
-1.66718 0.231429 0.0
-1.66554 0.3 0.0
-1.67802 0.571429 0.0
-1.67792 0.523809 0.0
-1.6367 0.366327 0.0
-1.63682 0.423469 0.0
-1.62568 0.502976 0.0
-1.6629 0.470238 0.0
-1.65254 0.618367 0.0
-1.6059 0.307143 0.0
-1.59833 0 0.0
-1.58288 0.0384615 0.0
-1.60563 0.169643 0.0
-1.58179 0.112271 0.0
-1.56964 0.0714286 0.0
-1.64574 0.690385 0.0
-1.62827 0.751429 0.0
-1.63371 0.791071 0.0
-1.64279 0.857143 0.0
-1.65378 0.896154 0.0
-1.64994 1 0.0
-1.6363 0.963636 0.0
-1.61916 0.930769 0.0
-1.61345 0.209107 0.0
-1.62126 0.248571 0.0
-1.56989 0.196429 0.0
-1.63324 0.553571 0.0
-1.58846 0.535714 0.0
-1.59408 0.361905 0.0
-1.59161 0.402211 0.0
-1.58832 0.464286 0.0
-1.61504 0.598581 0.0
-1.59683 0.64359 0.0
-1.57899 0.274107 0.0
-1.56176 0.322381 0.0
-1.54812 0 0.0
-1.53378 0.0357143 0.0
-1.54593 0.147619 0.0
-1.53385 0.0732143 0.0
-1.53393 0.110714 0.0
-1.58522 0.704286 0.0
-1.58709 0.745 0.0
-1.58896 0.785714 0.0
-1.60695 0.830357 0.0
-1.60707 0.892857 0.0
-1.59993 1 0.0
-1.58454 0.965385 0.0
-1.57135 0.928571 0.0
-1.55209 0.241071 0.0
-1.5291 0.198214 0.0
-1.56936 0.570918 0.0
-1.54369 0.517857 0.0
-1.5464 0.380952 0.0
-1.54564 0.427721 0.0
-1.54488 0.47449 0.0
-1.55026 0.606122 0.0
-1.54222 0.677143 0.0
-1.52943 0.282857 0.0
-1.52143 0.33619 0.0
-1.49792 0 0.0
-1.49802 0.05 0.0
-1.49822 0.15 0.0
-1.49312 0.1 0.0
-1.5423 0.717143 0.0
-1.54419 0.767857 0.0
-1.54727 0.819048 0.0
-1.57122 0.861905 0.0
-1.53553 0.914286 0.0
-1.54992 1 0.0
-1.53563 0.964286 0.0
-1.49842 0.25 0.0
-1.48831 0.2 0.0
-1.5214 0.558929 0.0
-1.49891 0.5 0.0
-1.49871 0.4 0.0
-1.47631 0.45 0.0
-1.49911 0.6 0.0
-1.49921 0.65 0.0
-1.49931 0.7 0.0
-1.48111 0.35 0.0
-1.48351 0.3 0.0
-1.44771 0 0.0
-1.44782 0.05 0.0
-1.44804 0.15 0.0
-1.44793 0.1 0.0
-1.49941 0.75 0.0
-1.49951 0.8 0.0
-1.49981 0.95 0.0
-1.49961 0.85 0.0
-1.49971 0.9 0.0
-1.49991 1 0.0
-1.44826 0.25 0.0
-1.43815 0.2 0.0
-1.47151 0.55 0.0
-1.44881 0.5 0.0
-1.44859 0.4 0.0
-1.42619 0.45 0.0
-1.44913 0.65 0.0
-1.44902 0.6 0.0
-1.44935 0.75 0.0
-1.44924 0.7 0.0
-1.43972 0.35 0.0
-1.43336 0.3 0.0
-1.3975 0 0.0
-1.39762 0.05 0.0
-1.39786 0.15 0.0
-1.39274 0.1 0.0
-1.44957 0.85 0.0
-1.44946 0.8 0.0
-1.4523 0.95 0.0
-1.44968 0.9 0.0
-1.4499 1 0.0
-1.3981 0.25 0.0
-1.38798 0.2 0.0
-1.42141 0.55 0.0
-1.3987 0.5 0.0
-1.39834 0.35 0.0
-1.37845 0.4 0.0
-1.37607 0.45 0.0
-1.40784 0.65 0.0
-1.39894 0.6 0.0
-1.41185 0.75 0.0
-1.39918 0.7 0.0
-1.38322 0.3 0.0
-1.34729 0 0.0
-1.34492 0.05 0.0
-1.34018 0.15 0.0
-1.34255 0.1 0.0
-1.40707 0.85 0.0
-1.39941 0.8 0.0
-1.39977 0.95 0.0
-1.39965 0.9 0.0
-1.39989 1 0.0
-1.33781 0.2 0.0
-1.33544 0.25 0.0
-1.37131 0.55 0.0
-1.34859 0.5 0.0
-1.33833 0.4 0.0
-1.3307 0.35 0.0
-1.32595 0.45 0.0
-1.34885 0.6 0.0
-1.36655 0.65 0.0
-1.36179 0.75 0.0
-1.34911 0.7 0.0
-1.33307 0.3 0.0
-1.29708 0 0.0
-1.29722 0.05 0.0
-1.2975 0.15 0.0
-1.29236 0.1 0.0
-1.35703 0.85 0.0
-1.34937 0.8 0.0
-1.34988 1 0.0
-1.34962 0.9 0.0
-1.35226 0.95 0.0
-1.28528 0.25 0.0
-1.28764 0.2 0.0
-1.28931 0.35 0.0
-1.32121 0.55 0.0
-1.29848 0.5 0.0
-1.28709 0.45 0.0
-1.2982 0.4 0.0
-1.29876 0.6 0.0
-1.31647 0.65 0.0
-1.29918 0.75 0.0
-1.29904 0.7 0.0
-1.28292 0.3 0.0
-1.24687 0 0.0
-1.24702 0.05 0.0
-1.24717 0.1 0.0
-1.24732 0.15 0.0
-1.29946 0.85 0.0
-1.29932 0.8 0.0
-1.29987 1 0.0
-1.29974 0.95 0.0
-1.30462 0.9 0.0
-1.24762 0.25 0.0
-1.23747 0.2 0.0
-1.24792 0.35 0.0
-1.22807 0.4 0.0
-1.27111 0.55 0.0
-1.24837 0.5 0.0
-1.24822 0.45 0.0
-1.24867 0.6 0.0
-1.26639 0.65 0.0
-1.26167 0.75 0.0
-1.24897 0.7 0.0
-1.23277 0.3 0.0
-1.19667 0 0.0
-1.19683 0.05 0.0
-1.18964 0.15 0.0
-1.19198 0.1 0.0
-1.25695 0.85 0.0
-1.24927 0.8 0.0
-1.25223 0.95 0.0
-1.24987 1 0.0
-1.24957 0.9 0.0
-1.1873 0.2 0.0
-1.18496 0.25 0.0
-1.18028 0.35 0.0
-1.17794 0.4 0.0
-1.1981 0.45 0.0
-1.19842 0.55 0.0
-1.19826 0.5 0.0
-1.19858 0.6 0.0
-1.19874 0.65 0.0
-1.19906 0.75 0.0
-1.1989 0.7 0.0
-1.18262 0.3 0.0
-1.14646 0 0.0
-1.14663 0.05 0.0
-1.1418 0.1 0.0
-1.13713 0.2 0.0
-1.14697 0.15 0.0
-1.20691 0.85 0.0
-1.20926 0.8 0.0
-1.20221 0.95 0.0
-1.19986 1 0.0
-1.20456 0.9 0.0
-1.13997 0.3 0.0
-1.14731 0.25 0.0
-1.13781 0.4 0.0
-1.13014 0.35 0.0
-1.12548 0.45 0.0
-1.14815 0.5 0.0
-1.15962 0.55 0.0
-1.14849 0.6 0.0
-1.15745 0.65 0.0
-1.16155 0.75 0.0
-1.14917 0.8 0.0
-1.14883 0.7 0.0
-1.09625 0 0.0
-1.09661 0.1 0.0
-1.09393 0.05 0.0
-1.09697 0.2 0.0
-1.08929 0.15 0.0
-1.15687 0.85 0.0
-1.14985 1 0.0
-1.15219 0.95 0.0
-1.14951 0.9 0.0
-1.09733 0.3 0.0
-1.08465 0.25 0.0
-1.09769 0.4 0.0
-1.08 0.35 0.0
-1.08661 0.45 0.0
-1.09804 0.5 0.0
-1.12082 0.55 0.0
-1.10916 0.8 0.0
-1.10629 0.7 0.0
-1.0984 0.6 0.0
-1.11616 0.65 0.0
-1.11149 0.75 0.0
-1.04604 0 0.0
-1.04623 0.05 0.0
-1.04642 0.1 0.0
-1.0468 0.2 0.0
-1.03911 0.15 0.0
-1.09948 0.9 0.0
-1.0993 0.85 0.0
-1.09984 1 0.0
-1.09966 0.95 0.0
-1.04718 0.3 0.0
-1.03449 0.25 0.0
-1.04756 0.4 0.0
-1.02986 0.35 0.0
-1.04775 0.45 0.0
-1.04794 0.5 0.0
-1.04813 0.55 0.0
-1.05911 0.8 0.0
-1.04831 0.6 0.0
-1.06376 0.7 0.0
-1.0485 0.65 0.0
-1.04888 0.75 0.0
-0.995833 0 0.0
-0.991231 0.1 0.0
-0.996033 0.05 0.0
-0.986629 0.2 0.0
-0.98893 0.15 0.0
-1.05447 0.9 0.0
-1.04926 0.85 0.0
-1.04983 1 0.0
-1.04964 0.95 0.0
-0.984328 0.25 0.0
-0.99703 0.3 0.0
-0.997429 0.4 0.0
-0.997628 0.45 0.0
-0.979726 0.35 0.0
-0.997827 0.5 0.0
-0.998027 0.55 0.0
-0.998226 0.6 0.0
-0.961416 0.475 0.0
-1.00907 0.8 0.0
-0.998426 0.65 0.0
-0.998625 0.7 0.0
-1.01138 0.75 0.0
-0.945625 0 0.0
-0.946044 0.1 0.0
-0.943334 0.05 0.0
-0.946463 0.2 0.0
-0.938752 0.15 0.0
-1.00444 0.9 0.0
-1.00675 0.85 0.0
-0.999821 1 0.0
-1.00213 0.95 0.0
-0.93417 0.25 0.0
-0.946881 0.3 0.0
-0.9473 0.4 0.0
-0.929588 0.35 0.0
-0.925005 0.45 0.0
-0.960371 0.525 0.0
-0.959325 0.575 0.0
-0.958279 0.625 0.0
-0.922714 0.5 0.0
-0.959017 0.8 0.0
-0.957233 0.675 0.0
-0.952999 0.7125 0.0
-0.948766 0.75 0.0
-0.895417 0 0.0
-0.895855 0.1 0.0
-0.893136 0.05 0.0
-0.896294 0.2 0.0
-0.888573 0.15 0.0
-0.949184 0.85 0.0
-0.954415 0.9 0.0
-0.949812 1 0.0
-0.949603 0.95 0.0
-0.884011 0.25 0.0
-0.896733 0.3 0.0
-0.874887 0.45 0.0
-0.879449 0.35 0.0
-0.897171 0.4 0.0
-0.920423 0.55 0.0
-0.918132 0.6 0.0
-0.915841 0.65 0.0
-0.872606 0.5 0.0
-0.908968 0.8 0.0
-0.91355 0.7 0.0
-0.898707 0.75 0.0
-0.845208 0 0.0
-0.845438 0.05 0.0
-0.845667 0.1 0.0
-0.845896 0.15 0.0
-0.833853 0.25 0.0
-0.846126 0.2 0.0
-0.899146 0.85 0.0
-0.904386 0.9 0.0
-0.899584 0.95 0.0
-0.899804 1 0.0
-0.838062 0.35 0.0
[...]
POINT_DATA 10839
VECTORS Velocity float
0.21 0 0.0
0.24 0 0.0
0.2275 0 0.0
0.2475 0 0.0
0.25 0 0.0
0.2475 0 0.0
0 0 0.0
0.0475 0 0.0
0.1275 0 0.0
0.09 0 0.0
0.09 0 0.0
0.1275 0 0.0
0.1875 0 0.0
0.16 0 0.0
0.195557 -2.42996e-05 0.0
0.242841 -3.31548e-05 0.0
0.215776 -2.89258e-05 0.0
0.231406 -3.26107e-05 0.0
0.248725 -3.53013e-05 0.0
0.24 0 0.0
0.24284 -3.30804e-05 0.0
0.24852 -3.39962e-05 0.0
0 0 0.0
0.0622239 -4.23161e-06 0.0
0.032227 -2.79721e-06 0.0
0.16 0 0.0
0.1875 0 0.0
0.21 0 0.0
0.2275 0 0.0
0.193592 -2.7276e-05 0.0
0.138887 -1.51401e-05 0.0
0 0 0.0
0.0475 0 0.0
0.0998415 -1.05139e-05 0.0
0.0622205 -4.27903e-06 0.0
0.0998462 -1.09862e-05 0.0
0.138891 -1.52753e-05 0.0
0.17438 -3.83013e-05 0.0
0.201606 -5.24761e-05 0.0
0.235787 -6.40815e-05 0.0
0.244085 -6.70555e-05 0.0
0.223602 -8.59163e-05 0.0
0.249751 -7.0061e-05 0.0
0.249044 -7.80732e-05 0.0
0.231404 -3.31404e-05 0.0
0.244081 -6.62613e-05 0.0
0 0 0.0
0.0361082 -5.41544e-06 0.0
0.0736128 -1.51416e-05 0.0
0.0622494 -1.65991e-05 0.0
0.17437 -3.7737e-05 0.0
0.220162 -5.24582e-05 0.0
0.201594 -5.25538e-05 0.0
0.115548 -2.26197e-05 0.0
0.146676 -3.50591e-05 0.0
0 0 0.0
0.0360874 -3.64622e-06 0.0
0.069366 -1.18343e-05 0.0
0.0899833 -2.35007e-05 0.0
0.109391 -3.17979e-05 0.0
0.146692 -3.43819e-05 0.0
0.178902 -6.42519e-05 0.0
0.206293 -8.40363e-05 0.0
0.214501 -0.000113286 0.0
0.238527 -0.000100482 0.0
0.24735 -0.000104639 0.0
0.229607 -0.000127934 0.0
0.226323 -9.02792e-05 0.0
0.249983 -0.000105157 0.0
0.246426 -0.000102303 0.0
0.23668 -9.63143e-05 0.0
0 0 0.0
0.0322509 -6.12631e-06 0.0
0.095697 -3.6129e-05 0.0
0.0694299 -2.72359e-05 0.0
0.178876 -6.32729e-05 0.0
0.206269 -8.46713e-05 0.0
0.127476 -4.87768e-05 0.0
0.165873 -8.01024e-05 0.0
0.152325 -5.73363e-05 0.0
0 0 0.0
0.0360795 -5.245e-06 0.0
0.0621955 -1.64225e-05 0.0
0.0956296 -3.68103e-05 0.0
0.127525 -4.9249e-05 0.0
0.156661 -7.15722e-05 0.0
0.115601 -5.65698e-05 0.0
0.193627 -0.000118127 0.0
0.218142 -0.000149526 0.0
0.24094 -0.000136324 0.0
0.247738 -0.000141387 0.0
0.25 -0.000142933 0.0
0.234398 -0.000173137 0.0
0.229576 -0.000126168 0.0
0.247727 -0.000141076 0.0
0.240919 -0.000136085 0.0
0 0 0.0
0.0344877 -8.4918e-06 0.0
0.103122 -5.56046e-05 0.0
0.0623039 -2.7603e-05 0.0
0.189727 -0.000100358 0.0
0.212988 -0.000140258 0.0
0.170533 -0.000108714 0.0
0.144329 -8.06649e-05 0.0
0 0 0.0
0.0398978 -9.03898e-06 0.0
0.0997856 -5.05294e-05 0.0
0.0693206 -2.6787e-05 0.0
0.170625 -0.00010884 0.0
0.144422 -8.2409e-05 0.0
0.124378 -8.36096e-05 0.0
0.18365 -0.000137655 0.0
0.204132 -0.00016485 0.0
0.222039 -0.000194145 0.0
0.249109 -0.00018775 0.0
0.244027 -0.000182738 0.0
0.24912 -0.000187757 0.0
0.238551 -0.000220557 0.0
0.234352 -0.000172124 0.0
0.244882 -0.000197951 0.0
0 0 0.0
0.0322925 -8.99992e-06 0.0
0.0940752 -5.84846e-05 0.0
0.0652185 -3.49524e-05 0.0
0.196695 -0.000150545 0.0
0.217871 -0.000185023 0.0
0.177437 -0.000152851 0.0
0.148689 -0.000106588 0.0
0.120328 -7.45841e-05 0.0
0 0 0.0
0.0343904 -8.57386e-06 0.0
0.0716434 -3.50507e-05 0.0
0.152425 -0.00011958 0.0
0.127616 -0.000103906 0.0
0.187579 -0.00017083 0.0
0.211952 -0.000212855 0.0
0.248605 -0.000233198 0.0
0.225686 -0.000241205 0.0
0.249783 -0.000234889 0.0
0.246474 -0.000230925 0.0
0.242065 -0.000270385 0.0
0.23849 -0.000219943 0.0
0 0 0.0
0.0338751 -1.12907e-05 0.0
0.0999947 -7.82046e-05 0.0
0.0695468 -4.65851e-05 0.0
0.206259 -0.000199271 0.0
0.222404 -0.000232347 0.0
0.189974 -0.000207158 0.0
0.168252 -0.000167253 0.0
0.143002 -0.000128248 0.0
0.124193 -9.45786e-05 0.0
0.0970829 -6.35002e-05 0.0
0 0 0.0
0.0360202 -1.09302e-05 0.0
0.0673137 -3.75891e-05 0.0
0.130336 -0.000125671 0.0
0.168484 -0.000168058 0.0
0.199474 -0.000219308 0.0
0.218379 -0.000257444 0.0
0.241992 -0.000271056 0.0
0.25 -0.00028295 0.0
0.247988 -0.00027965 0.0
0.229082 -0.000290561 0.0
0.244938 -0.000322163 0.0
0.248741 -0.000296965 0.0
0.234444 -0.000277777 0.0
0 0 0.0
0.0362338 -1.45701e-05 0.0
0.122661 -0.00012883 0.0
0.0712316 -5.51488e-05 0.0
0.208348 -0.000243894 0.0
0.225125 -0.000290371 0.0
0.198046 -0.000253319 0.0
0.177723 -0.000209715 0.0
0.146524 -0.000154586 0.0
0.11913 -0.000107942 0.0
0.0970496 -7.20791e-05 0.0
0 0 0.0
0.0349378 -1.22463e-05 0.0
0.067276 -4.23499e-05 0.0
0.152303 -0.000175801 0.0
0.178019 -0.000214662 0.0
0.210117 -0.000271621 0.0
0.244858 -0.000322092 0.0
0.24942 -0.000330886 0.0
0.232227 -0.000341994 0.0
0.244198 -0.000366693 0.0
0.249988 -0.000391457 0.0
0.249132 -0.000347716 0.0
0.235912 -0.000332884 0.0
0.212965 -0.00033191 0.0
0 0 0.0
0.037163 -1.71776e-05 0.0
0.141113 -0.00017944 0.0
0.099961 -0.000108468 0.0
0.0666026 -5.37704e-05 0.0
0.213627 -0.000296943 0.0
0.186605 -0.000258528 0.0
0.165082 -0.000210351 0.0
0.122238 -0.000129541 0.0
0.0928637 -7.91152e-05 0.0
0 0 0.0
0.0349079 -1.36823e-05 0.0
0.0642243 -4.49994e-05 0.0
0.1656 -0.000224883 0.0
0.18697 -0.000264304 0.0
0.158127 -0.000235379 0.0
0.247091 -0.000376608 0.0
0.248691 -0.000433043 0.0
0.231053 -0.000384183 0.0
0.240527 -0.000410024 0.0
0.248758 -0.000432666 0.0
0.240202 -0.000383127 0.0
0.229254 -0.000376493 0.0
0.199184 -0.00032499 0.0
0.218636 -0.000388496 0.0
0 0 0.0
0.034651 -1.68603e-05 0.0
0.126174 -0.000174468 0.0
0.0681818 -6.07879e-05 0.0
0.0988241 -0.000118171 0.0
0.20808 -0.00033985 0.0
0.189757 -0.000296289 0.0
0.168122 -0.00024591 0.0
0.140616 -0.000178099 0.0
0.0954057 -9.41726e-05 0.0
0 0 0.0
0.0332516 -1.40102e-05 0.0
0.0660529 -5.36073e-05 0.0
0.183227 -0.000307127 0.0
0.159267 -0.000263503 0.0
0.244897 -0.000446539 0.0
0.24966 -0.000490236 0.0
0.235963 -0.000449699 0.0
0.244859 -0.000475331 0.0
0.249378 -0.000489026 0.0
0.238619 -0.000452199 0.0
0.218417 -0.000408744 0.0
0.203108 -0.00037928 0.0
0.223373 -0.00044427 0.0
0 0 0.0
0.0478091 -3.36759e-05 0.0
0.127926 -0.000198983 0.0
0.0904292 -0.000110975 0.0
0.202605 -0.000365417 0.0
0.177962 -0.000300548 0.0
0.147883 -0.000225543 0.0
0.118716 -0.000147854 0.0
0.0780229 -7.9074e-05 0.0
0 0 0.0
0.0342294 -1.65141e-05 0.0
0.187836 -0.000363726 0.0
0.160406 -0.000293258 0.0
0.246451 -0.00051037 0.0
0.25 -0.000549923 0.0
0.240142 -0.000519264 0.0
0.247578 -0.000572498 0.0
0.239858 -0.000518899 0.0
0.227289 -0.00048047 0.0
0.209725 -0.000427481 0.0
0.227727 -0.000504242 0.0
0.210294 -0.000445377 0.0
0 0 0.0
0.0478733 -3.75682e-05 0.0
0.128022 -0.000222188 0.0
0.0905125 -0.00012204 0.0
0.187165 -0.000361892 0.0
0.159613 -0.000283694 0.0
0.0471949 -3.30177e-05 0.0
0.127078 -0.000196281 0.0
0.0895838 -0.00010865 0.0
0 0 0.0
0.187913 -0.000408803 0.0
0.160498 -0.000328277 0.0
0.247419 -0.000579065 0.0
0.249999 -0.00061965 0.0
0.240175 -0.000585464 0.0
0.247596 -0.000643654 0.0
0.227242 -0.000541043 0.0
0.239825 -0.000584377 0.0
0.187088 -0.000406616 0.0
0.209662 -0.000481039 0.0
0.227768 -0.000553585 0.0
0.21036 -0.000500678 0.0
0 0 0.0
0.047944 -4.11969e-05 0.0
0.12813 -0.000247084 0.0
0.0906253 -0.000136885 0.0
0.126981 -0.00022 0.0
0.159524 -0.000318369 0.0
0.0471349 -3.66178e-05 0.0
0.0894927 -0.000120777 0.0
0 0 0.0
0.188001 -0.000456582 0.0
0.160601 -0.000365998 0.0
0.247401 -0.000649993 0.0
0.249999 -0.000694263 0.0
0.227813 -0.000607294 0.0
0.240226 -0.000684775 0.0
0.247614 -0.000720429 0.0
0.227196 -0.00059239 0.0
0.239788 -0.000654684 0.0
0.187024 -0.00044101 0.0
0.20959 -0.000538215 0.0
0.210434 -0.000559737 0.0
0 0 0.0
0.048027 -4.58182e-05 0.0
0.12827 -0.000277981 0.0
0.0907404 -0.000151225 0.0
0.126891 -0.000240332 0.0
0.159424 -0.000354552 0.0
0.047062 -4.06744e-05 0.0
0.089392 -0.000133342 0.0
0 0 0.0
0.160716 -0.000406057 0.0
0.188125 -0.000520605 0.0
0.247381 -0.00072604 0.0
0.249998 -0.000774384 0.0
0.240261 -0.000747839 0.0
0.227898 -0.000702471 0.0
0.247636 -0.000801876 0.0
0.239745 -0.000729613 0.0
0.227147 -0.000648443 0.0
0.186929 -0.000490597 0.0
0.209509 -0.000599006 0.0
0.210517 -0.000623636 0.0
0 0 0.0
0.0481105 -5.05704e-05 0.0
0.128385 -0.000303162 0.0
0.0908674 -0.000166888 0.0
0.126774 -0.000265979 0.0
0.159312 -0.000393662 0.0
0 0 0.0
0.0892795 -0.000147482 0.0
0.0469885 -4.46929e-05 0.0
0.188237 -0.000579168 0.0
0.160844 -0.000450155 0.0
0.227957 -0.000766046 0.0
0.247358 -0.000808544 0.0
0.249998 -0.000861243 0.0
0.247655 -0.000870638 0.0
0.240299 -0.000813813 0.0
0.239699 -0.000810864 0.0
0.22708 -0.000721085 0.0
0.186794 -0.000557511 0.0
0.209419 -0.000665535 0.0
0.210611 -0.000691953 0.0
0 0 0.0
0.0482055 -5.57722e-05 0.0
0.0909933 -0.000181909 0.0
0.128533 -0.000334528 0.0
0.126623 -0.000297942 0.0
0.159188 -0.000435707 0.0
0 0 0.0
0.0469005 -4.91494e-05 0.0
0.0891692 -0.000160506 0.0
0.188331 -0.000624787 0.0
0.160987 -0.000498154 0.0
0.228019 -0.00083437 0.0
0.240372 -0.000940393 0.0
0.247333 -0.000898077 0.0
0.249997 -0.000954906 0.0
0.247675 -0.000943054 0.0
0.239646 -0.000898856 0.0
0.227006 -0.000799951 0.0
0.186704 -0.000601791 0.0
0.209318 -0.000736468 0.0
0.210715 -0.000766941 0.0
0 0 0.0
0.0483114 -6.12654e-05 0.0
0.128724 -0.000375538 0.0
0.0911635 -0.000203275 0.0
0.126499 -0.000323857 0.0
0.159049 -0.00048125 0.0
0.0468125 -5.33712e-05 0.0
0 0 0.0
0.0890207 -0.000178097 0.0
0.161146 -0.000550516 0.0
0.188502 -0.000707538 0.0
0.228138 -0.000956533 0.0
0.240432 -0.00104272 0.0
0.247703 -0.00104511 0.0
0.24729 -0.00103913 0.0
0.249996 -0.00105869 0.0
0.239587 -0.000996725 0.0
0.226892 -0.000915235 0.0
0.186538 -0.000680697 0.0
0.209206 -0.00081503 0.0
0.21083 -0.000848174 0.0
0 0 0.0
0.0484267 -6.72318e-05 0.0
0.0913342 -0.000223031 0.0
0.161321 -0.000606112 0.0
0.128881 -0.00040736 0.0
0.12634 -0.000356575 0.0
0.158927 -0.000520489 0.0
0.0467103 -5.8926e-05 0.0
0 0 0.0
0.0888847 -0.000194204 0.0
0.210937 -0.000923635 0.0
0.188619 -0.000763911 0.0
0.240484 -0.00112921 0.0
0.228235 -0.00106034 0.0
0.24775 -0.00120681 0.0
0.249995 -0.00117035 0.0
0.247264 -0.00112329 0.0
0.239522 -0.00110132 0.0
0.226813 -0.000993438 0.0
0.186425 -0.000732857 0.0
0.158725 -0.000585313 0.0
0.209082 -0.000899167 0.0
0 0 0.0
0.0915054 -0.000243911 0.0
0.0485626 -7.47822e-05 0.0
0.161475 -0.000657212 0.0
0.129113 -0.000457284 0.0
0.126163 -0.000392815 0.0
0 0 0.0
0.0465982 -6.47344e-05 0.0
0.0887037 -0.000215517 0.0
0.211056 -0.00100386 0.0
0.188829 -0.000866463 0.0
0.240541 -0.00122242 0.0
0.228344 -0.00117275 0.0
0.247776 -0.00130649 0.0
0.249992 -0.00129373 0.0
0.247236 -0.00121587 0.0
0.158575 -0.000630155 0.0
0.208965 -0.000976789 0.0
0.239448 -0.00121466 0.0
0.226727 -0.00107863 0.0
0.186264 -0.000808476 0.0
0 0 0.0
0.0486964 -8.15817e-05 0.0
0.0917099 -0.000268113 0.0
0.161687 -0.000724362 0.0
0.129341 -0.00050451 0.0
0.0885205 -0.000236255 0.0
0.125937 -0.000438446 0.0
0 0 0.0
0.0464693 -7.15578e-05 0.0
0.211208 -0.00110876 0.0
0.18902 -0.00095769 0.0
0.240618 -0.00135035 0.0
0.228464 -0.00129666 0.0
0.247806 -0.0014132 0.0
0.249991 -0.00143003 0.0
0.247176 -0.00140038 0.0
0.158373 -0.000693349 0.0
0.239368 -0.00134118 0.0
0.208839 -0.0010583 0.0
0.226572 -0.00123223 0.0
0.186037 -0.000915243 0.0
0 0 0.0
0.0919613 -0.000298277 0.0
0.0488508 -8.96577e-05 0.0
0.161968 -0.000814472 0.0
0.12959 -0.00055645 0.0
0.0883408 -0.000257514 0.0
0.125719 -0.000483609 0.0
0 0 0.0
0.0463327 -7.88532e-05 0.0
0.18923 -0.00105941 0.0
0.211377 -0.00122567 0.0
0.240705 -0.00149363 0.0
0.247848 -0.00155832 0.0
0.228597 -0.00143271 0.0
0.249988 -0.0015762 0.0
0.24713 -0.00154848 0.0
0.239279 -0.00147703 0.0
0.249557 -0.00169114 0.0
0.158148 -0.000762814 0.0
0.22644 -0.00135919 0.0
0.208622 -0.00119995 0.0
0.185886 -0.000983847 0.0
0 0 0.0
0.0921915 -0.000325896 0.0
0.0490322 -9.97155e-05 0.0
0.16218 -0.000882846 0.0
0.129867 -0.000613875 0.0
0.0881224 -0.000283328 0.0
0.125516 -0.000525041 0.0
0 0 0.0
0.0461913 -8.65507e-05 0.0
0.189464 -0.00117107 0.0
0.211564 -0.00135535 0.0
0.240794 -0.00164831 0.0
0.228744 -0.00158575 0.0
0.247913 -0.001801 0.0
0.24916 -0.00168925 0.0
0.243767 -0.00163811 0.0
0.233385 -0.00153787 0.0
0.24998 -0.00182941 0.0
0.157902 -0.000839108 0.0
0.218018 -0.00139276 0.0
0.203212 -0.00126022 0.0
0.185612 -0.00110737 0.0
0 0 0.0
0.0924676 -0.000359162 0.0
0.0492199 -0.000109101 0.0
0.162466 -0.00097643 0.0
0.130174 -0.00067855 0.0
0.125216 -0.000586458 0.0
0.0878812 -0.000312416 0.0
0 0 0.0
0.04602 -9.52214e-05 0.0
0.189724 -0.00129637 0.0
0.21177 -0.00149968 0.0
0.247959 -0.001987 0.0
0.228904 -0.00175402 0.0
0.2409 -0.00182304 0.0
0.247045 -0.00180416 0.0
0.239113 -0.00172521 0.0
0.226193 -0.00159442 0.0
0.249969 -0.00201825 0.0
0.15763 -0.000924169 0.0
0.208295 -0.00141292 0.0
0.185364 -0.00121878 0.0
0 0 0.0
0.0494176 -0.000119388 0.0
0.0927741 -0.000397319 0.0
0.130461 -0.000738992 0.0
0.19001 -0.00143431 0.0
0.162785 -0.00108117 0.0
0.124926 -0.000645619 0.0
0.0876155 -0.000344768 0.0
0.0458372 -0.000105195 0.0
0 0 0.0
0.229049 -0.00190846 0.0
0.211999 -0.00166288 0.0
0.248001 -0.00214855 0.0
0.24101 -0.00201897 0.0
0.226021 -0.00175327 0.0
0.246977 -0.00198787 0.0
0.23899 -0.00189937 0.0
0.24996 -0.00222656 0.0
0.185096 -0.00133805 0.0
0.157271 -0.00103322 0.0
0.208002 -0.00159738 0.0
0 0 0.0
0.0496467 -0.000132534 0.0
0.0931512 -0.000444376 0.0
0.130832 -0.000817975 0.0
0.190244 -0.00155421 0.0
0.163213 -0.00122955 0.0
0.124609 -0.000709369 0.0
0.0872949 -0.000383642 0.0
0.0456377 -0.000115759 0.0
0 0 0.0
0.124259 -0.000780741 0.0
0.229205 -0.00207129 0.0
0.212331 -0.0019078 0.0
0.241181 -0.00233061 0.0
0.248043 -0.00231981 0.0
0.22576 -0.00199026 0.0
0.238858 -0.00208821 0.0
0.246904 -0.00219183 0.0
0.24994 -0.00245662 0.0
0.1848 -0.00146784 0.0
0.156938 -0.00113768 0.0
0.207752 -0.00175705 0.0
0 0 0.0
0.0499003 -0.000146663 0.0
0.0935349 -0.000494246 0.0
0.131246 -0.000910399 0.0
0.19059 -0.0017253 0.0
0.163619 -0.00137067 0.0
0.0454133 -0.000129093 0.0
0.086968 -0.000423824 0.0
0 0 0.0
0.123939 -0.00084282 0.0
0.229411 -0.00230205 0.0
0.212619 -0.00212269 0.0
0.241316 -0.00258199 0.0
0.248096 -0.00256802 0.0
0.225576 -0.0021516 0.0
0.23871 -0.00229491 0.0
0.249919 -0.00271208 0.0
0.246777 -0.00252188 0.0
0.184557 -0.00156922 0.0
0.156575 -0.00124695 0.0
0.207476 -0.00192457 0.0
0 0 0.0
0.05018 -0.000162707 0.0
0.0939607 -0.000550382 0.0
0.131779 -0.00103187 0.0
0.191068 -0.00197496 0.0
0.212934 -0.0023679 0.0
0.164066 -0.00153376 0.0
0.0451832 -0.000141536 0.0
0.0866136 -0.000465702 0.0
0 0 0.0
0.12353 -0.000921827 0.0
0.229715 -0.00264987 0.0
0.241429 -0.00280974 0.0
0.248151 -0.00284276 0.0
0.249893 -0.00292369 0.0
0.225382 -0.00231909 0.0
0.238535 -0.0025251 0.0
0.24667 -0.00277652 0.0
0.156178 -0.00136398 0.0
0.18421 -0.00171611 0.0
0.20717 -0.00210498 0.0
0 0 0.0
0.0505146 -0.000183661 0.0
0.0944428 -0.000620028 0.0
0.132308 -0.0011618 0.0
0.191393 -0.00215225 0.0
0.213277 -0.00264044 0.0
0.164567 -0.00172142 0.0
0.0449158 -0.000155139 0.0
0.086225 -0.000510147 0.0
0 0 0.0
0.155836 -0.0014544 0.0
0.0858043 -0.000553947 0.0
0.123015 -0.00101516 0.0
0.229965 -0.00296572 0.0
0.241544 -0.00304727 0.0
0.248224 -0.00329537 0.0
0.249867 -0.00314567 0.0
0.246577 -0.00299314 0.0
0.225119 -0.00253695 0.0
0.238263 -0.00287755 0.0
0.183727 -0.00190848 0.0
0.206885 -0.00227326 0.0
0.230188 -0.00323959 0.0
0 0 0.0
0.0508724 -0.000207414 0.0
0.132901 -0.00131527 0.0
0.0949854 -0.000703755 0.0
0.213658 -0.00296186 0.0
0.19198 -0.00248595 0.0
0.165125 -0.00193992 0.0
0.0446109 -0.000169482 0.0
0 0 0.0
0.183406 -0.00203407 0.0
0.155371 -0.00157814 0.0
0.122522 -0.00110116 0.0
0.0442882 -0.000186303 0.0
0.0853449 -0.000601115 0.0
0.241701 -0.00338965 0.0
0.248259 -0.00357171 0.0
0.24981 -0.0034733 0.0
0.24976 -0.0037458 0.0
0.246467 -0.00322187 0.0
0.224818 -0.00277543 0.0
0.238022 -0.00315646 0.0
0.206571 -0.00243883 0.0
0.230412 -0.00354675 0.0
0.0512614 -0.000235893 0.0
0 0 0.0
0.133462 -0.00146448 0.0
0.0955978 -0.00080094 0.0
0.214067 -0.00332515 0.0
0.192375 -0.00272235 0.0
0.165748 -0.00219769 0.0
0 0 0.0
0.182946 -0.00219652 0.0
0.15476 -0.0017241 0.0
0.122078 -0.00116545 0.0
0.0439627 -0.000200164 0.0
0.0848537 -0.000646325 0.0
0.241917 -0.00394282 0.0
0.248291 -0.00386306 0.0
0.249691 -0.00403179 0.0
0.246227 -0.00368828 0.0
0.224487 -0.00302486 0.0
0.23776 -0.00345535 0.0
0.206039 -0.00271677 0.0
0.230716 -0.00397385 0.0
0 0 0.0
0.0517239 -0.000272525 0.0
0.134199 -0.00167373 0.0
0.0962299 -0.0009085 0.0
0.166441 -0.00249486 0.0
0.214514 -0.00374672 0.0
0.193094 -0.00316867 0.0
0 0 0.0
0 0 0.0
0.182433 -0.00236787 0.0
0.1542 -0.00184963 0.0
0.121516 -0.00124567 0.0
0.08433 -0.000689562 0.0
0.0435954 -0.000213443 0.0
0.242074 -0.00439596 0.0
0.248311 -0.0042881 0.0
0.237514 -0.00371138 0.0
0.249582 -0.004449 0.0
0.246011 -0.00405786 0.0
0.224106 -0.00329558 0.0
0.205567 -0.00293806 0.0
0.242193 -0.00480487 0.0
0.231016 -0.004458 0.0
0.0522529 -0.00031318 0.0
0.0970188 -0.00104294 0.0
0.135036 -0.00192592 0.0
0.167057 -0.00277934 0.0
0.214997 -0.00422451 0.0
0.193567 -0.00349585 0.0
0 0 0.0
0 0 0.0
0.15372 -0.0019378 0.0
0.181726 -0.00257568 0.0
0.0838316 -0.000722273 0.0
0.120822 -0.0013295 0.0
0.0432015 -0.000228016 0.0
0.248317 -0.00497103 0.0
0.249427 -0.0049151 0.0
0.205047 -0.00316646 0.0
0.237237 -0.00397606 0.0
0.245821 -0.00436723 0.0
0.223513 -0.00367884 0.0
0.242311 -0.00523382 0.0
0.231463 -0.00521537 0.0
0.215509 -0.00477745 0.0
0.0529071 -0.000366393 0.0
0.0979301 -0.0012146 0.0
0.136137 -0.00227187 0.0
0.167906 -0.00317572 0.0
0.194432 -0.00411057 0.0
0 0 0.0
0 0 0.0
0.152939 -0.00207025 0.0
0.181087 -0.00274976 0.0
0.0831963 -0.000759464 0.0
0.120177 -0.00139483 0.0
0.0427733 -0.00023965 0.0
0.245598 -0.00469645 0.0
0.249233 -0.0054162 0.0
0.24827 -0.00552832 0.0
0.204462 -0.00340086 0.0
0.236846 -0.00433755 0.0
0.222997 -0.00399382 0.0
0.180387 -0.00291823 0.0
0.242478 -0.00610406 0.0
0 0 0.0
0.231774 -0.00588204 0.0
0.195198 -0.0047002 0.0
0.216048 -0.00540286 0.0
0.0536068 -0.000429639 0.0
0.137074 -0.0025864 0.0
0.0991046 -0.00145061 0.0
0.169047 -0.00376988 0.0
0 0 0.0
0 0 0.0
0 0 0.0
0 0 0.0
0 0 0.0
0.0423684 -0.000247471 0.0
0.119494 -0.00145503 0.0
0.152225 -0.0021779 0.0
0.082647 -0.000787956 0.0
0.245257 -0.00514025 0.0
0.248977 -0.00597272 0.0
0.248197 -0.00614172 0.0
0.222517 -0.00424589 0.0
0.203799 -0.00364116 0.0
0.236178 -0.0048794 0.0
0.203178 -0.00384671 0.0
0.179809 -0.00303804 0.0
0.242552 -0.00683069 0.0
0.232095 -0.0066136 0.0
0 0 0.0
9.32842e-05 -4.06719e-05 0.0
0 0 0.0
-0.000283593 0.00143535 0.0
0.216623 -0.00613014 0.0
0.195824 -0.00519584 0.0
0.0545077 -0.000515922 0.0
0.138305 -0.00301055 0.0
0.100353 -0.00171262 0.0
0.170134 -0.00436277 0.0
0 0 0.0
0 0 0.0
0 0 0.0
-0.000202237 0.000701479 0.0
-1.85623e-07 -0.000147386 0.0
7.79649e-05 -9.55631e-05 0.0
0 0 0.0
0.0419218 -0.000256997 0.0
0.118888 -0.00149659 0.0
0.151457 -0.00227558 0.0
0.08196 -0.00081669 0.0
0.244853 -0.00563288 0.0
0.248653 -0.00657978 0.0
0.248065 -0.00681411 0.0
0.221981 -0.00451781 0.0
0.235728 -0.00522531 0.0
0.202489 -0.00404963 0.0
0.178762 -0.00323537 0.0
0.242599 -0.00762851 0.0
0.235399 -0.00745533 0.0
0.225371 -0.00711235 0.0
0 0 0.0
0.000164433 -1.70357e-05 0.0
0 0 0.0
0 0 0.0
-0.00102718 0.00343061 0.0
-0.000945937 0.00213395 0.0
0.212485 -0.00663688 0.0
0.196699 -0.00595386 0.0
0.101661 -0.00199968 0.0
0.0554842 -0.000622936 0.0
0.139706 -0.0035285 0.0
0.171325 -0.00505781 0.0
0 0 0.0
-0.000288025 0.000247776 0.0
-0.000608029 0.000992847 0.0
-0.000133327 3.13023e-05 0.0
-5.00488e-05 9.0226e-05 0.0
0 0 0.0
0.0414637 -0.000265057 0.0
0.118144 -0.00154066 0.0
0.150638 -0.00235883 0.0
0.0813099 -0.000838673 0.0
0.244363 -0.00615974 0.0
0.248251 -0.00723792 0.0
0.247867 -0.00755393 0.0
0.220972 -0.00498631 0.0
0.235216 -0.00557368 0.0
0.201585 -0.00430252 0.0
0.149758 -0.00244985 0.0
0.177822 -0.00339835 0.0
0.242593 -0.00832166 0.0
0.232577 -0.00805079 0.0
0.21763 -0.00762489 0.0
0 0 0.0
3.62832e-05 7.66285e-05 0.0
0 0 0.0
0 0 0.0
0 0 0.0
0 0 0.0
-0.00166565 0.00229539 0.0
-0.000303851 0.00306088 0.0
-0.00107966 0.00458084 0.0
-0.00247837 0.00607746 0.0
-0.00202201 0.00401104 0.0
0 0 0.0
-8.70345e-05 0.00498937 0.0
0.197866 -0.00709434 0.0
0.172367 -0.00572595 0.0
0 0 0.0
0.0567781 -0.000775782 0.0
0.103341 -0.0024034 0.0
0.141559 -0.00430514 0.0
0 0 0.0
0 0 0.0
-0.000931693 0.00100461 0.0
-0.000635419 0.000541593 0.0
-0.000526453 0.000402302 0.0