# vtk DataFile Version 3.0
Mesh NS-CD Problem
ASCII
DATASET UNSTRUCTURED_GRID
POINTS 10839 float
-2 0.3 0.0
-2 0.4 0.0
-2 0.35 0.0
-2 0.45 0.0
-2 0.5 0.0
-2 0.55 0.0
-2 0 0.0
-2 0.05 0.0
-2 0.85 0.0
-2 0.9 0.0
-2 0.1 0.0
-2 0.15 0.0
-2 0.25 0.0
-2 0.2 0.0
-1.96653 0.266667 0.0
-1.96524 0.415385 0.0
-1.96485 0.315 0.0
-1.96348 0.363636 0.0
-1.96414 0.464286 0.0
-2 0.6 0.0
-1.96538 0.584615 0.0
-1.96538 0.538462 0.0
-1.94979 0 0.0
-1.96653 0.0666666 0.0
-1.93306 0.0333333 0.0
-2 0.8 0.0
-2 0.75 0.0
-2 0.7 0.0
-2 0.65 0.0
-1.96249 0.7375 0.0
-1.96666 0.833333 0.0
-2 1 0.0
-2 0.95 0.0
-1.96249 0.8875 0.0
-1.96666 0.933333 0.0
-1.96234 0.1125 0.0
-1.96653 0.166667 0.0
-1.93724 0.225 0.0
-1.92971 0.28 0.0
-1.93048 0.380769 0.0
-1.93048 0.423077 0.0
-1.89958 0.3375 0.0
-1.9292 0.484203 0.0
-1.92117 0.530907 0.0
-1.96363 0.636364 0.0
-1.93076 0.576923 0.0
-1.89958 0 0.0
-1.88703 0.0375 0.0
-1.90963 0.08 0.0
-1.86611 0.0666666 0.0
-1.93749 0.775 0.0
-1.93635 0.672727 0.0
-1.92999 0.72 0.0
-1.93332 0.866667 0.0
-1.92856 0.821429 0.0
-1.94999 1 0.0
-1.92499 0.9625 0.0
-1.92499 0.925 0.0
-1.89998 0.9 0.0
-1.89958 0.125 0.0
-1.92827 0.178571 0.0
-1.89958 0.233333 0.0
-1.89045 0.290909 0.0
-1.86096 0.311538 0.0
-1.89241 0.392857 0.0
-1.89334 0.448489 0.0
-1.85655 0.357143 0.0
-1.89614 0.653846 0.0
-1.89427 0.504121 0.0
-1.8952 0.559753 0.0
-1.89614 0.615385 0.0
-1.84937 0 0.0
-1.83264 0.0333333 0.0
-1.85655 0.107143 0.0
-1.81172 0.075 0.0
-1.89998 0.766667 0.0
-1.89089 0.709091 0.0
-1.87498 0.85 0.0
-1.85998 0.79 0.0
-1.88748 0.8125 0.0
-1.89998 1 0.0
-1.88748 0.9625 0.0
-1.86664 0.933333 0.0
-1.85712 0.892857 0.0
-1.87448 0.15 0.0
-1.86611 0.194444 0.0
-1.83264 0.133333 0.0
-1.83264 0.2625 0.0
-1.82068 0.321429 0.0
-1.85664 0.404762 0.0
-1.85674 0.452381 0.0
-1.85683 0.5 0.0
-1.81184 0.375 0.0
-1.85712 0.642857 0.0
-1.85693 0.547619 0.0
-1.85702 0.595238 0.0
-1.79917 0 0.0
-1.78482 0.0357143 0.0
-1.79917 0.116667 0.0
-1.76569 0.0666666 0.0
-1.85452 0.745455 0.0
-1.82689 0.692308 0.0
-1.81815 0.781818 0.0
-1.82497 0.825 0.0
-1.84997 1 0.0
-1.8333 0.958333 0.0
-1.81247 0.8875 0.0
-1.81247 0.925 0.0
-1.81742 0.218182 0.0
-1.82427 0.175 0.0
-1.77634 0.145455 0.0
-1.79144 0.242308 0.0
-1.78482 0.285714 0.0
-1.77469 0.332653 0.0
-1.81215 0.529762 0.0
-1.81194 0.422619 0.0
-1.81203 0.470238 0.0
-1.76714 0.392857 0.0
-1.81234 0.625 0.0
-1.79732 0.571429 0.0
-1.74896 0 0.0
-1.73222 0.0333333 0.0
-1.75398 0.105 0.0
-1.71883 0.07 0.0
-1.79227 0.730769 0.0
-1.78007 0.679121 0.0
-1.75765 0.769231 0.0
-1.78178 0.818182 0.0
-1.78996 0.86 0.0
-1.79996 1 0.0
-1.78568 0.964286 0.0
-1.76663 0.922222 0.0
-1.76569 0.1875 0.0
-1.73222 0.15 0.0
-1.74896 0.25 0.0
-1.73714 0.304762 0.0
-1.76743 0.537202 0.0
-1.72869 0.343878 0.0
-1.76732 0.485119 0.0
-1.76723 0.440476 0.0
-1.72243 0.410714 0.0
-1.76757 0.607143 0.0
-1.69875 0 0.0
-1.68369 0.035 0.0
-1.69875 0.1125 0.0
-1.66528 0.075 0.0
-1.74341 0.708974 0.0
-1.73324 0.665934 0.0
-1.70441 0.74478 0.0
-1.71423 0.785714 0.0
-1.72303 0.826923 0.0
-1.74541 0.854545 0.0
-1.74541 0.890909 0.0
-1.74996 1 0.0
-1.73745 0.9625 0.0
-1.71359 0.927273 0.0
-1.68716 0.153846 0.0
-1.7131 0.214286 0.0
-1.70725 0.275 0.0
-1.69712 0.321939 0.0
-1.72279 0.589286 0.0
-1.72261 0.5 0.0
-1.7227 0.544643 0.0
-1.6827 0.355102 0.0
-1.67773 0.428571 0.0
-1.70763 0.464286 0.0
-1.70369 0.62449 0.0
-1.64854 0 0.0
-1.63181 0.0375 0.0
-1.64137 0.142857 0.0
-1.61764 0.0769231 0.0
-1.69458 0.703846 0.0
-1.67471 0.657437 0.0
-1.66143 0.727637 0.0
-1.67125 0.768571 0.0
-1.67851 0.821429 0.0
-1.68841 0.861538 0.0
-1.70904 0.890909 0.0
-1.69995 1 0.0
-1.68176 0.963636 0.0
-1.67267 0.927273 0.0
-1.65427 0.187143 0.0
-1.66718 0.231429 0.0
-1.66554 0.3 0.0
-1.67802 0.571429 0.0
-1.67792 0.523809 0.0
-1.6367 0.366327 0.0
-1.63682 0.423469 0.0
-1.62568 0.502976 0.0
-1.6629 0.470238 0.0
-1.65254 0.618367 0.0
-1.6059 0.307143 0.0
-1.59833 0 0.0
-1.58288 0.0384615 0.0
-1.60563 0.169643 0.0
-1.58179 0.112271 0.0
-1.56964 0.0714286 0.0
-1.64574 0.690385 0.0
-1.62827 0.751429 0.0
-1.63371 0.791071 0.0
-1.64279 0.857143 0.0
-1.65378 0.896154 0.0
-1.64994 1 0.0
-1.6363 0.963636 0.0
-1.61916 0.930769 0.0
-1.61345 0.209107 0.0
-1.62126 0.248571 0.0
-1.56989 0.196429 0.0
-1.63324 0.553571 0.0
-1.58846 0.535714 0.0
-1.59408 0.361905 0.0
-1.59161 0.402211 0.0
-1.58832 0.464286 0.0
-1.61504 0.598581 0.0
-1.59683 0.64359 0.0
-1.57899 0.274107 0.0
-1.56176 0.322381 0.0
-1.54812 0 0.0
-1.53378 0.0357143 0.0
-1.54593 0.147619 0.0
-1.53385 0.0732143 0.0
-1.53393 0.110714 0.0
-1.58522 0.704286 0.0
-1.58709 0.745 0.0
-1.58896 0.785714 0.0
-1.60695 0.830357 0.0
-1.60707 0.892857 0.0
-1.59993 1 0.0
-1.58454 0.965385 0.0
-1.57135 0.928571 0.0
-1.55209 0.241071 0.0
-1.5291 0.198214 0.0
-1.56936 0.570918 0.0
-1.54369 0.517857 0.0
-1.5464 0.380952 0.0
-1.54564 0.427721 0.0
-1.54488 0.47449 0.0
-1.55026 0.606122 0.0
-1.54222 0.677143 0.0
-1.52943 0.282857 0.0
-1.52143 0.33619 0.0
-1.49792 0 0.0
-1.49802 0.05 0.0
-1.49822 0.15 0.0
-1.49312 0.1 0.0
-1.5423 0.717143 0.0
-1.54419 0.767857 0.0
-1.54727 0.819048 0.0
-1.57122 0.861905 0.0
-1.53553 0.914286 0.0
-1.54992 1 0.0
-1.53563 0.964286 0.0
-1.49842 0.25 0.0
-1.48831 0.2 0.0
-1.5214 0.558929 0.0
-1.49891 0.5 0.0
-1.49871 0.4 0.0
-1.47631 0.45 0.0
-1.49911 0.6 0.0
-1.49921 0.65 0.0
-1.49931 0.7 0.0
-1.48111 0.35 0.0
-1.48351 0.3 0.0
-1.44771 0 0.0
-1.44782 0.05 0.0
-1.44804 0.15 0.0
-1.44793 0.1 0.0
-1.49941 0.75 0.0
-1.49951 0.8 0.0
-1.49981 0.95 0.0
-1.49961 0.85 0.0
-1.49971 0.9 0.0
-1.49991 1 0.0
-1.44826 0.25 0.0
-1.43815 0.2 0.0
-1.47151 0.55 0.0
-1.44881 0.5 0.0
-1.44859 0.4 0.0
-1.42619 0.45 0.0
-1.44913 0.65 0.0
-1.44902 0.6 0.0
-1.44935 0.75 0.0
-1.44924 0.7 0.0
-1.43972 0.35 0.0
-1.43336 0.3 0.0
-1.3975 0 0.0
-1.39762 0.05 0.0
-1.39786 0.15 0.0
-1.39274 0.1 0.0
-1.44957 0.85 0.0
-1.44946 0.8 0.0
-1.4523 0.95 0.0
-1.44968 0.9 0.0
-1.4499 1 0.0
-1.3981 0.25 0.0
-1.38798 0.2 0.0
-1.42141 0.55 0.0
-1.3987 0.5 0.0
-1.39834 0.35 0.0
-1.37845 0.4 0.0
-1.37607 0.45 0.0
-1.40784 0.65 0.0
-1.39894 0.6 0.0
-1.41185 0.75 0.0
-1.39918 0.7 0.0
-1.38322 0.3 0.0
-1.34729 0 0.0
-1.34492 0.05 0.0
-1.34018 0.15 0.0
-1.34255 0.1 0.0
-1.40707 0.85 0.0
-1.39941 0.8 0.0
-1.39977 0.95 0.0
-1.39965 0.9 0.0
-1.39989 1 0.0
-1.33781 0.2 0.0
-1.33544 0.25 0.0
-1.37131 0.55 0.0
-1.34859 0.5 0.0
-1.33833 0.4 0.0
-1.3307 0.35 0.0
-1.32595 0.45 0.0
-1.34885 0.6 0.0
-1.36655 0.65 0.0
-1.36179 0.75 0.0
-1.34911 0.7 0.0
-1.33307 0.3 0.0
-1.29708 0 0.0
-1.29722 0.05 0.0
-1.2975 0.15 0.0
-1.29236 0.1 0.0
-1.35703 0.85 0.0
-1.34937 0.8 0.0
-1.34988 1 0.0
-1.34962 0.9 0.0
-1.35226 0.95 0.0
-1.28528 0.25 0.0
-1.28764 0.2 0.0
-1.28931 0.35 0.0
-1.32121 0.55 0.0
-1.29848 0.5 0.0
-1.28709 0.45 0.0
-1.2982 0.4 0.0
-1.29876 0.6 0.0
-1.31647 0.65 0.0
-1.29918 0.75 0.0
-1.29904 0.7 0.0
-1.28292 0.3 0.0
-1.24687 0 0.0
-1.24702 0.05 0.0
-1.24717 0.1 0.0
-1.24732 0.15 0.0
-1.29946 0.85 0.0
-1.29932 0.8 0.0
-1.29987 1 0.0
-1.29974 0.95 0.0
-1.30462 0.9 0.0
-1.24762 0.25 0.0
-1.23747 0.2 0.0
-1.24792 0.35 0.0
-1.22807 0.4 0.0
-1.27111 0.55 0.0
-1.24837 0.5 0.0
-1.24822 0.45 0.0
-1.24867 0.6 0.0
-1.26639 0.65 0.0
-1.26167 0.75 0.0
-1.24897 0.7 0.0
-1.23277 0.3 0.0
-1.19667 0 0.0
-1.19683 0.05 0.0
-1.18964 0.15 0.0
-1.19198 0.1 0.0
-1.25695 0.85 0.0
-1.24927 0.8 0.0
-1.25223 0.95 0.0
-1.24987 1 0.0
-1.24957 0.9 0.0
-1.1873 0.2 0.0
-1.18496 0.25 0.0
-1.18028 0.35 0.0
-1.17794 0.4 0.0
-1.1981 0.45 0.0
-1.19842 0.55 0.0
-1.19826 0.5 0.0
-1.19858 0.6 0.0
-1.19874 0.65 0.0
-1.19906 0.75 0.0
-1.1989 0.7 0.0
-1.18262 0.3 0.0
-1.14646 0 0.0
-1.14663 0.05 0.0
-1.1418 0.1 0.0
-1.13713 0.2 0.0
-1.14697 0.15 0.0
-1.20691 0.85 0.0
-1.20926 0.8 0.0
-1.20221 0.95 0.0
-1.19986 1 0.0
-1.20456 0.9 0.0
-1.13997 0.3 0.0
-1.14731 0.25 0.0
-1.13781 0.4 0.0
-1.13014 0.35 0.0
-1.12548 0.45 0.0
-1.14815 0.5 0.0
-1.15962 0.55 0.0
-1.14849 0.6 0.0
-1.15745 0.65 0.0
-1.16155 0.75 0.0
-1.14917 0.8 0.0
-1.14883 0.7 0.0
-1.09625 0 0.0
-1.09661 0.1 0.0
-1.09393 0.05 0.0
-1.09697 0.2 0.0
-1.08929 0.15 0.0
-1.15687 0.85 0.0
-1.14985 1 0.0
-1.15219 0.95 0.0
-1.14951 0.9 0.0
-1.09733 0.3 0.0
-1.08465 0.25 0.0
-1.09769 0.4 0.0
-1.08 0.35 0.0
-1.08661 0.45 0.0
-1.09804 0.5 0.0
-1.12082 0.55 0.0
-1.10916 0.8 0.0
-1.10629 0.7 0.0
-1.0984 0.6 0.0
-1.11616 0.65 0.0
-1.11149 0.75 0.0
-1.04604 0 0.0
-1.04623 0.05 0.0
-1.04642 0.1 0.0
-1.0468 0.2 0.0
-1.03911 0.15 0.0
-1.09948 0.9 0.0
-1.0993 0.85 0.0
-1.09984 1 0.0
-1.09966 0.95 0.0
-1.04718 0.3 0.0
-1.03449 0.25 0.0
-1.04756 0.4 0.0
-1.02986 0.35 0.0
-1.04775 0.45 0.0
-1.04794 0.5 0.0
-1.04813 0.55 0.0
-1.05911 0.8 0.0
-1.04831 0.6 0.0
-1.06376 0.7 0.0
-1.0485 0.65 0.0
-1.04888 0.75 0.0
-0.995833 0 0.0
-0.991231 0.1 0.0
-0.996033 0.05 0.0
-0.986629 0.2 0.0
-0.98893 0.15 0.0
-1.05447 0.9 0.0
-1.04926 0.85 0.0
-1.04983 1 0.0
-1.04964 0.95 0.0
-0.984328 0.25 0.0
-0.99703 0.3 0.0
-0.997429 0.4 0.0
-0.997628 0.45 0.0
-0.979726 0.35 0.0
-0.997827 0.5 0.0
-0.998027 0.55 0.0
-0.998226 0.6 0.0
-0.961416 0.475 0.0
-1.00907 0.8 0.0
-0.998426 0.65 0.0
-0.998625 0.7 0.0
-1.01138 0.75 0.0
-0.945625 0 0.0
-0.946044 0.1 0.0
-0.943334 0.05 0.0
-0.946463 0.2 0.0
-0.938752 0.15 0.0
-1.00444 0.9 0.0
-1.00675 0.85 0.0
-0.999821 1 0.0
-1.00213 0.95 0.0
-0.93417 0.25 0.0
-0.946881 0.3 0.0
-0.9473 0.4 0.0
-0.929588 0.35 0.0
-0.925005 0.45 0.0
-0.960371 0.525 0.0
-0.959325 0.575 0.0
-0.958279 0.625 0.0
-0.922714 0.5 0.0
-0.959017 0.8 0.0
-0.957233 0.675 0.0
-0.952999 0.7125 0.0
-0.948766 0.75 0.0
-0.895417 0 0.0
-0.895855 0.1 0.0
-0.893136 0.05 0.0
-0.896294 0.2 0.0
-0.888573 0.15 0.0
-0.949184 0.85 0.0
-0.954415 0.9 0.0
-0.949812 1 0.0
-0.949603 0.95 0.0
-0.884011 0.25 0.0
-0.896733 0.3 0.0
-0.874887 0.45 0.0
-0.879449 0.35 0.0
-0.897171 0.4 0.0
-0.920423 0.55 0.0
-0.918132 0.6 0.0
-0.915841 0.65 0.0
-0.872606 0.5 0.0
-0.908968 0.8 0.0
-0.91355 0.7 0.0
-0.898707 0.75 0.0
-0.845208 0 0.0
-0.845438 0.05 0.0
-0.845667 0.1 0.0
-0.845896 0.15 0.0
-0.833853 0.25 0.0
-0.846126 0.2 0.0
-0.899146 0.85 0.0
-0.904386 0.9 0.0
-0.899584 0.95 0.0
-0.899804 1 0.0
-0.838062 0.35 0.0
[...]
POINT_DATA 10839
VECTORS Velocity float
0.21 0 0.0
0.24 0 0.0
0.2275 0 0.0
0.2475 0 0.0
0.25 0 0.0
0.2475 0 0.0
0 0 0.0
0.0475 0 0.0
0.1275 0 0.0
0.09 0 0.0
0.09 0 0.0
0.1275 0 0.0
0.1875 0 0.0
0.16 0 0.0
0.195557 -2.38596e-05 0.0
0.242841 -3.25884e-05 0.0
0.215776 -2.8416e-05 0.0
0.231406 -3.20466e-05 0.0
0.248725 -3.47025e-05 0.0
0.24 0 0.0
0.24284 -3.25144e-05 0.0
0.24852 -3.34185e-05 0.0
0 0 0.0
0.0622239 -4.13594e-06 0.0
0.0322269 -2.73291e-06 0.0
0.16 0 0.0
0.1875 0 0.0
0.21 0 0.0
0.2275 0 0.0
0.193592 -2.67816e-05 0.0
0.138887 -1.48419e-05 0.0
0 0 0.0
0.0475 0 0.0
0.0998415 -1.02936e-05 0.0
0.0622206 -4.18217e-06 0.0
0.0998462 -1.07574e-05 0.0
0.138891 -1.4976e-05 0.0
0.17438 -3.76046e-05 0.0
0.201606 -5.15608e-05 0.0
0.235787 -6.30087e-05 0.0
0.244085 -6.59435e-05 0.0
0.223602 -8.44964e-05 0.0
0.249751 -6.89066e-05 0.0
0.249044 -7.67952e-05 0.0
0.231404 -3.25678e-05 0.0
0.244081 -6.51592e-05 0.0
0 0 0.0
0.0361079 -5.29729e-06 0.0
0.0736126 -1.48277e-05 0.0
0.0622489 -1.62595e-05 0.0
0.17437 -3.70464e-05 0.0
0.220162 -5.1554e-05 0.0
0.201594 -5.16347e-05 0.0
0.115549 -2.21696e-05 0.0
0.146676 -3.4399e-05 0.0
0 0 0.0
0.0360875 -3.56372e-06 0.0
0.0693662 -1.15817e-05 0.0
0.0899836 -2.30289e-05 0.0
0.109391 -3.11841e-05 0.0
0.146691 -3.37378e-05 0.0
0.178902 -6.31302e-05 0.0
0.206293 -8.26311e-05 0.0
0.214501 -0.000111465 0.0
0.238527 -9.88608e-05 0.0
0.24735 -0.000102965 0.0
0.229607 -0.000125922 0.0
0.226323 -8.87913e-05 0.0
0.249983 -0.000103478 0.0
0.246426 -0.000100661 0.0
0.23668 -9.4749e-05 0.0
0 0 0.0
0.0322502 -5.99561e-06 0.0
0.0956964 -3.54434e-05 0.0
0.0694289 -2.67143e-05 0.0
0.178876 -6.21622e-05 0.0
0.206269 -8.32511e-05 0.0
0.127476 -4.78786e-05 0.0
0.165873 -7.87262e-05 0.0
0.152325 -5.63038e-05 0.0
0 0 0.0
0.0360798 -5.13032e-06 0.0
0.062196 -1.6085e-05 0.0
0.0956302 -3.61065e-05 0.0
0.127524 -4.83465e-05 0.0
0.156661 -7.03266e-05 0.0
0.1156 -5.55556e-05 0.0
0.193626 -0.000116238 0.0
0.218141 -0.000147233 0.0
0.24094 -0.000134206 0.0
0.247737 -0.000139206 0.0
0.25 -0.000140732 0.0
0.234398 -0.000170555 0.0
0.229577 -0.000124174 0.0
0.247727 -0.000138897 0.0
0.240919 -0.000133966 0.0
0 0 0.0
0.0344867 -8.31661e-06 0.0
0.103121 -5.46213e-05 0.0
0.0623024 -2.70803e-05 0.0
0.189727 -9.86963e-05 0.0
0.212989 -0.000138072 0.0
0.170534 -0.000106938 0.0
0.14433 -7.92923e-05 0.0
0 0 0.0
0.0398985 -8.85022e-06 0.0
0.0997866 -4.96086e-05 0.0
0.0693217 -2.62694e-05 0.0
0.170624 -0.000107075 0.0
0.144421 -8.10119e-05 0.0
0.124377 -8.22211e-05 0.0
0.183649 -0.000135525 0.0
0.204131 -0.000162384 0.0
0.222038 -0.000191334 0.0
0.249109 -0.000184989 0.0
0.244026 -0.00018004 0.0
0.24912 -0.000184998 0.0
0.238551 -0.000217447 0.0
0.234353 -0.000169547 0.0
0.244883 -0.000195073 0.0
0 0 0.0
0.0322911 -8.81729e-06 0.0
0.0940736 -5.74716e-05 0.0
0.0652164 -3.43178e-05 0.0
0.196696 -0.000148239 0.0
0.217871 -0.000182303 0.0
0.177438 -0.000150546 0.0
0.14869 -0.000104862 0.0
0.120329 -7.33073e-05 0.0
0 0 0.0
0.0343914 -8.39475e-06 0.0
0.0716449 -3.43995e-05 0.0
0.152424 -0.000117706 0.0
0.127614 -0.000102271 0.0
0.187578 -0.000168335 0.0
0.211951 -0.00020988 0.0
0.248605 -0.000229938 0.0
0.225685 -0.00023792 0.0
0.249783 -0.000231613 0.0
0.246474 -0.000227695 0.0
0.242064 -0.000266792 0.0
0.23849 -0.00021683 0.0
0 0 0.0
0.0338731 -1.10683e-05 0.0
0.0999923 -7.69405e-05 0.0
0.0695439 -4.57766e-05 0.0
0.20626 -0.000196428 0.0
0.222405 -0.000229138 0.0
0.189975 -0.000204287 0.0
0.168254 -0.000164828 0.0
0.143004 -0.000126289 0.0
0.124194 -9.30429e-05 0.0
0.0970846 -6.2409e-05 0.0
0 0 0.0
0.0360217 -1.07092e-05 0.0
0.0673159 -3.69066e-05 0.0
0.130334 -0.000123804 0.0
0.168482 -0.00016565 0.0
0.199472 -0.000216314 0.0
0.218378 -0.000254053 0.0
0.241992 -0.000267444 0.0
0.25 -0.000279216 0.0
0.247989 -0.000275949 0.0
0.229081 -0.00028685 0.0
0.244938 -0.000318138 0.0
0.248741 -0.000293118 0.0
0.234445 -0.000274134 0.0
0 0 0.0
0.0362311 -1.42918e-05 0.0
0.122658 -0.000126992 0.0
0.0712279 -5.42296e-05 0.0
0.20835 -0.000240633 0.0
0.225126 -0.00028667 0.0
0.198048 -0.000250037 0.0
0.177725 -0.000206879 0.0
0.146526 -0.00015236 0.0
0.119132 -0.000106273 0.0
0.0970519 -7.08794e-05 0.0
0 0 0.0
0.0349399 -1.20022e-05 0.0
0.0672788 -4.16005e-05 0.0
0.152301 -0.000173403 0.0
0.178017 -0.000211799 0.0
0.210116 -0.000268157 0.0
0.244858 -0.000318061 0.0
0.24942 -0.000326766 0.0
0.232226 -0.000337913 0.0
0.244197 -0.000362353 0.0
0.249989 -0.000386923 0.0
0.249132 -0.000343469 0.0
0.235913 -0.000328813 0.0
0.212963 -0.000328029 0.0
0 0 0.0
0.0371596 -1.68586e-05 0.0
0.14111 -0.000177073 0.0
0.0999569 -0.000106897 0.0
0.0665982 -5.28844e-05 0.0
0.213629 -0.000293248 0.0
0.186607 -0.000255266 0.0
0.165084 -0.000207588 0.0
0.122241 -0.000127646 0.0
0.0928668 -7.78422e-05 0.0
0 0 0.0
0.0349105 -1.34139e-05 0.0
0.0642279 -4.42152e-05 0.0
0.165597 -0.000222039 0.0
0.186968 -0.000261039 0.0
0.158124 -0.000232527 0.0
0.247091 -0.000372182 0.0
0.248691 -0.000428273 0.0
0.231052 -0.000379852 0.0
0.240526 -0.000405457 0.0
0.248757 -0.00042791 0.0
0.240203 -0.000378697 0.0
0.229256 -0.00037221 0.0
0.199182 -0.000321264 0.0
0.218634 -0.000384258 0.0
0 0 0.0
0.034647 -1.65493e-05 0.0
0.12617 -0.000172236 0.0
0.0681767 -5.98168e-05 0.0
0.0988191 -0.000116518 0.0
0.208082 -0.000335943 0.0
0.189759 -0.000292771 0.0
0.168125 -0.000242874 0.0
0.140619 -0.000175711 0.0
0.0954096 -9.2722e-05 0.0
0 0 0.0
0.0332548 -1.37384e-05 0.0
0.0660573 -5.26966e-05 0.0
0.183224 -0.000303666 0.0
0.159263 -0.000260474 0.0
0.244898 -0.000441732 0.0
0.24966 -0.000485182 0.0
0.235962 -0.000444981 0.0
0.244858 -0.000470384 0.0
0.249378 -0.000483952 0.0
0.23862 -0.000447429 0.0
0.21842 -0.000404378 0.0
0.203105 -0.000375247 0.0
0.223371 -0.000439703 0.0
0 0 0.0
0.0478038 -3.30958e-05 0.0
0.127921 -0.00019657 0.0
0.0904234 -0.000109408 0.0
0.202607 -0.000361423 0.0
0.177966 -0.000297116 0.0
0.147887 -0.000222763 0.0
0.11872 -0.000145828 0.0
0.0780281 -7.78189e-05 0.0
0 0 0.0
0.0342334 -1.6197e-05 0.0
0.187833 -0.000359931 0.0
0.160402 -0.00029005 0.0
0.246451 -0.000505237 0.0
0.25 -0.000544584 0.0
0.24014 -0.000514183 0.0
0.247577 -0.000567101 0.0
0.239859 -0.000513799 0.0
0.227291 -0.000475692 0.0
0.209728 -0.000423115 0.0
0.227725 -0.000499343 0.0
0.210291 -0.000440964 0.0
0 0 0.0
0.0478671 -3.692e-05 0.0
0.128017 -0.000219615 0.0
0.0905057 -0.00012035 0.0
0.187169 -0.000358054 0.0
0.159617 -0.000280488 0.0
0.0472002 -3.24284e-05 0.0
0.127083 -0.000193829 0.0
0.0895896 -0.000107047 0.0
0 0 0.0
0.187909 -0.000404793 0.0
0.160493 -0.000324861 0.0
0.24742 -0.000573631 0.0
0.249999 -0.000614006 0.0
0.240173 -0.000580072 0.0
0.247595 -0.000637929 0.0
0.227244 -0.000536003 0.0
0.239826 -0.00057899 0.0
0.187092 -0.000402558 0.0
0.209665 -0.000476429 0.0
0.227765 -0.000548487 0.0
0.210356 -0.000495989 0.0
0 0 0.0
0.0479367 -4.05028e-05 0.0
0.128124 -0.000244316 0.0
0.0906175 -0.000135024 0.0
0.126987 -0.00021734 0.0
0.159529 -0.00031494 0.0
0.0471412 -3.5963e-05 0.0
0.0894995 -0.000119025 0.0
0 0 0.0
0.187996 -0.000452325 0.0
0.160595 -0.000362339 0.0
0.247402 -0.00064426 0.0
0.249999 -0.000688284 0.0
0.22781 -0.000601955 0.0
0.240224 -0.000678935 0.0
0.247613 -0.000714316 0.0
0.227199 -0.00058716 0.0
0.23979 -0.000648984 0.0
0.187028 -0.000436787 0.0
0.209593 -0.000533318 0.0
0.21043 -0.000554732 0.0
0 0 0.0
0.0480185 -4.50484e-05 0.0
0.128262 -0.000274947 0.0
0.0907314 -0.000149186 0.0
0.126898 -0.0002375 0.0
0.15943 -0.000350873 0.0
0.0470694 -3.99408e-05 0.0
0.0893999 -0.000131423 0.0
0 0 0.0
0.160709 -0.000402107 0.0
0.188119 -0.00051599 0.0
0.247382 -0.000719967 0.0
0.249998 -0.000768017 0.0
0.240259 -0.000741628 0.0
0.227894 -0.000696618 0.0
0.247635 -0.000795333 0.0
0.239748 -0.000723567 0.0
0.22715 -0.000642946 0.0
0.186934 -0.000486095 0.0
0.209513 -0.000593801 0.0
0.210513 -0.000618224 0.0
0 0 0.0
0.0481007 -4.96952e-05 0.0
0.128377 -0.000299863 0.0
0.0908572 -0.000164634 0.0
0.126782 -0.000262896 0.0
0.159319 -0.00038968 0.0
0 0 0.0
0.0892885 -0.000145348 0.0
0.0469971 -4.3879e-05 0.0
0.188231 -0.000574079 0.0
0.160837 -0.000445844 0.0
0.227953 -0.000759747 0.0
0.247359 -0.000802043 0.0
0.249998 -0.000854379 0.0
0.247653 -0.000863649 0.0
0.240296 -0.00080717 0.0
0.239701 -0.000804381 0.0
0.227084 -0.00071521 0.0
0.1868 -0.00055259 0.0
0.209424 -0.000659911 0.0
0.210605 -0.000686059 0.0
0 0 0.0
0.0481944 -5.4791e-05 0.0
0.0909819 -0.000179436 0.0
0.128524 -0.000330878 0.0
0.126632 -0.00029449 0.0
0.159195 -0.000431334 0.0
0 0 0.0
0.0469105 -4.82398e-05 0.0
0.0891794 -0.000158171 0.0
0.188324 -0.000619294 0.0
0.160979 -0.000493349 0.0
0.228015 -0.000827526 0.0
0.240369 -0.00093274 0.0
0.247334 -0.000891026 0.0
0.249997 -0.000947423 0.0
0.247674 -0.000935534 0.0
0.239649 -0.000891825 0.0
0.22701 -0.000793593 0.0
0.18671 -0.000596492 0.0
0.209323 -0.000730356 0.0
0.210709 -0.000760363 0.0
0 0 0.0
0.0482986 -6.01636e-05 0.0
0.128713 -0.000371364 0.0
0.0911506 -0.00020048 0.0
0.126509 -0.000320028 0.0
0.159057 -0.000476388 0.0
0.0468239 -5.23623e-05 0.0
0 0 0.0
0.0890323 -0.000175424 0.0
0.161136 -0.000545094 0.0
0.188494 -0.000701185 0.0
0.228133 -0.000948452 0.0
0.240429 -0.00103398 0.0
0.247701 -0.00103667 0.0
0.247292 -0.00103114 0.0
0.249996 -0.00105032 0.0
0.23959 -0.000988916 0.0
0.226897 -0.000908122 0.0
0.186545 -0.000674664 0.0
0.209212 -0.00080823 0.0
0.210823 -0.000840692 0.0
0 0 0.0
0.0484123 -6.60554e-05 0.0
0.0913196 -0.000219997 0.0
0.16131 -0.000600008 0.0
0.128869 -0.000402814 0.0
0.12635 -0.000352176 0.0
0.158935 -0.000515093 0.0
0.0467234 -5.77471e-05 0.0
0 0 0.0
0.0888979 -0.000191133 0.0
0.21093 -0.000915179 0.0
0.18861 -0.000756775 0.0
0.240481 -0.00111941 0.0
0.22823 -0.00105078 0.0
0.247748 -0.00119664 0.0
0.249996 -0.00116092 0.0
0.247266 -0.00111458 0.0
0.239525 -0.00109266 0.0
0.226818 -0.000985691 0.0
0.186433 -0.000726208 0.0
0.158734 -0.000578885 0.0
0.209088 -0.000891586 0.0
0 0 0.0
0.0914891 -0.000240672 0.0
0.0485461 -7.35216e-05 0.0
0.161463 -0.000650364 0.0
0.129099 -0.000452074 0.0
0.126175 -0.00038762 0.0
0 0 0.0
0.0466134 -6.33289e-05 0.0
0.0887189 -0.000211788 0.0
0.211048 -0.000994154 0.0
0.188818 -0.000857626 0.0
0.240537 -0.0012113 0.0
0.228338 -0.00116131 0.0
0.247775 -0.00129489 0.0
0.249993 -0.00128289 0.0
0.247239 -0.0012062 0.0
0.158585 -0.000622894 0.0
0.208972 -0.000968435 0.0
0.239453 -0.00120501 0.0
0.226733 -0.00107009 0.0
0.186272 -0.000800805 0.0
0 0 0.0
0.048678 -8.02874e-05 0.0
0.0916916 -0.000264769 0.0
0.161673 -0.00071643 0.0
0.129325 -0.000498723 0.0
0.088538 -0.000231697 0.0
0.125951 -0.000431939 0.0
0 0 0.0
0.046487 -6.98164e-05 0.0
0.211198 -0.00109702 0.0
0.189008 -0.000947003 0.0
0.240614 -0.00133704 0.0
0.228457 -0.00128265 0.0
0.247805 -0.00139987 0.0
0.249993 -0.00141739 0.0
0.24718 -0.00138884 0.0
0.158384 -0.000684711 0.0
0.239373 -0.0013303 0.0
0.208846 -0.00104917 0.0
0.226579 -0.00122225 0.0
0.186046 -0.000905891 0.0
0 0 0.0
0.0919404 -0.000294897 0.0
0.0488307 -8.84682e-05 0.0
0.161951 -0.000804802 0.0
0.129571 -0.000550048 0.0
0.0883608 -0.000251892 0.0
0.125734 -0.000475449 0.0
0 0 0.0
0.0463537 -7.66489e-05 0.0
0.189215 -0.00104616 0.0
0.211366 -0.00121107 0.0
0.2407 -0.00147721 0.0
0.247848 -0.0015424 0.0
0.228589 -0.00141528 0.0
0.24999 -0.00156145 0.0
0.247135 -0.00153512 0.0
0.239285 -0.00146492 0.0
0.249559 -0.00167351 0.0
0.158159 -0.000752415 0.0
0.226447 -0.00134812 0.0
0.20863 -0.00118937 0.0
0.185895 -0.000973406 0.0
0 0 0.0
0.0921681 -0.000322602 0.0
0.04901 -9.86883e-05 0.0
0.162159 -0.000871478 0.0
0.129844 -0.000606679 0.0
0.0881459 -0.000276083 0.0
0.125532 -0.000515126 0.0
0 0 0.0
0.0462161 -8.36925e-05 0.0
0.189446 -0.00115432 0.0
0.21155 -0.0013368 0.0
0.240791 -0.00162807 0.0
0.228735 -0.00156348 0.0
0.247914 -0.00177964 0.0
0.249165 -0.00167343 0.0
0.243774 -0.00162417 0.0
0.233392 -0.00152548 0.0
0.249985 -0.00181031 0.0
0.157913 -0.000826664 0.0
0.218026 -0.00138117 0.0
0.20322 -0.00124867 0.0
0.18562 -0.00109518 0.0
0 0 0.0
0.092441 -0.000355967 0.0
0.0491962 -0.000108349 0.0
0.16244 -0.000962129 0.0
0.130145 -0.000670076 0.0
0.125234 -0.000573592 0.0
0.0879091 -0.000303018 0.0
0 0 0.0
0.0460502 -9.14562e-05 0.0
0.1897 -0.00127459 0.0
0.211754 -0.00147565 0.0
0.247963 -0.00196082 0.0
0.228894 -0.00172532 0.0
0.240897 -0.00179738 0.0
0.247052 -0.00178764 0.0
0.239122 -0.00171113 0.0
0.226201 -0.00158197 0.0
0.249978 -0.00199555 0.0
0.15764 -0.000909493 0.0
0.208302 -0.00140091 0.0
0.185371 -0.00120544 0.0
0 0 0.0
0.0493926 -0.00011892 0.0
0.0927432 -0.000393827 0.0
0.130427 -0.000728776 0.0
0.18998 -0.00140547 0.0
0.162752 -0.00106242 0.0
0.124945 -0.000629782 0.0
0.0876487 -0.000332717 0.0
0.0458745 -0.000100307 0.0
0 0 0.0
0.229039 -0.00187263 0.0
0.21198 -0.00163103 0.0
0.248009 -0.00211754 0.0
0.241009 -0.00198604 0.0
0.22603 -0.00174085 0.0
0.246988 -0.00196926 0.0
0.239002 -0.00188445 0.0
0.249974 -0.00219961 0.0
0.1851 -0.00132441 0.0
0.157278 -0.00101645 0.0
0.208009 -0.00158571 0.0
0 0 0.0
0.0496206 -0.000132096 0.0
0.0931138 -0.000439782 0.0
0.130788 -0.000804159 0.0
0.190209 -0.0015178 0.0
0.163168 -0.00120198 0.0
0.124629 -0.000690513 0.0
0.087335 -0.000368365 0.0
0.0456839 -0.000109536 0.0
0 0 0.0
0.124278 -0.000759467 0.0
0.229194 -0.00202694 0.0
0.212306 -0.00186077 0.0
0.241185 -0.0022834 0.0
0.248055 -0.00228318 0.0
0.225772 -0.00197982 0.0
0.238874 -0.00207324 0.0
0.24692 -0.00217111 0.0
0.249963 -0.00242454 0.0
0.184801 -0.00145548 0.0
0.156941 -0.0011202 0.0
0.207758 -0.00174754 0.0
0 0 0.0
0.0498723 -0.000145959 0.0
0.0934889 -0.000487116 0.0
0.131189 -0.00089023 0.0
0.190544 -0.00167558 0.0
0.163559 -0.00133151 0.0
0.0454707 -0.000121277 0.0
0.0870155 -0.00040553 0.0
0 0 0.0
0.123956 -0.000820915 0.0
0.229402 -0.00224302 0.0
0.21259 -0.00205908 0.0
0.241326 -0.00252097 0.0
0.248116 -0.00252197 0.0
0.225592 -0.00214406 0.0
0.238732 -0.00228104 0.0
0.249953 -0.00267414 0.0
0.246806 -0.00249862 0.0
0.184554 -0.00155956 0.0
0.156571 -0.00123122 0.0
0.207481 -0.00191995 0.0
0 0 0.0
0.0501489 -0.000161076 0.0
0.0939015 -0.000538469 0.0
0.1317 -0.000999519 0.0
0.191007 -0.00190052 0.0
0.212899 -0.00228136 0.0
0.163987 -0.00147733 0.0
0.0452529 -0.000132415 0.0
0.0866685 -0.000445059 0.0
0 0 0.0
0.123542 -0.000901608 0.0
0.22971 -0.00256409 0.0
0.241447 -0.00273443 0.0
0.248183 -0.00278495 0.0
0.24994 -0.00288051 0.0
0.225401 -0.00231684 0.0
0.238566 -0.00251377 0.0
0.246713 -0.00275229 0.0
0.156164 -0.0013539 0.0
0.184201 -0.00171338 0.0
0.207174 -0.002109 0.0
0 0 0.0
0.0504763 -0.00018036 0.0
0.0943635 -0.000599507 0.0
0.132202 -0.00111233 0.0
0.19132 -0.00205671 0.0
0.213239 -0.00252452 0.0
0.164464 -0.0016404 0.0
0.0449999 -0.000144973 0.0
0.0862863 -0.000488697 0.0
0 0 0.0
0.155812 -0.00145306 0.0
0.0858686 -0.000534397 0.0
0.123017 -0.0010023 0.0
0.229967 -0.00285093 0.0
0.241573 -0.00295542 0.0
0.248285 -0.00321521 0.0
0.249929 -0.00309697 0.0
0.246635 -0.00296833 0.0
0.225146 -0.0025443 0.0
0.238314 -0.00287424 0.0
0.183707 -0.00192218 0.0
0.206889 -0.00228884 0.0
0.230198 -0.00309624 0.0
0 0 0.0
0.050822 -0.000200901 0.0
0.132758 -0.00124039 0.0
0.0948762 -0.000669856 0.0
0.213617 -0.00280583 0.0
0.191885 -0.00234357 0.0
0.164991 -0.00182459 0.0
0.0447101 -0.000159271 0.0
0 0 0.0
0.183379 -0.00206364 0.0
0.155332 -0.00159423 0.0
0.122509 -0.00110111 0.0
0.0444012 -0.000175946 0.0
0.0854071 -0.000587337 0.0
0.24175 -0.0032714 0.0
0.248344 -0.00347622 0.0
0.249902 -0.00341594 0.0
0.249881 -0.00368054 0.0
0.246543 -0.00319752 0.0
0.224857 -0.00279712 0.0
0.238097 -0.00316273 0.0
0.206578 -0.00247095 0.0
0.230436 -0.00336862 0.0
0.0511912 -0.000224842 0.0
0 0 0.0
0.133279 -0.00136045 0.0
0.0954449 -0.000748106 0.0
0.214026 -0.00311836 0.0
0.192266 -0.00254252 0.0
0.165576 -0.0020361 0.0
0 0 0.0
0.182909 -0.00225505 0.0
0.154695 -0.00177392 0.0
0.122045 -0.00118337 0.0
0.0440851 -0.000191787 0.0
0.0849053 -0.000642598 0.0
0.242008 -0.00377531 0.0
0.248405 -0.0037502 0.0
0.249849 -0.00395849 0.0
0.246355 -0.00366688 0.0
0.224544 -0.00306739 0.0
0.237866 -0.00347606 0.0
0.206051 -0.00278563 0.0
0.230763 -0.00374331 0.0
0 0 0.0
0.0516217 -0.000254009 0.0
0.133955 -0.00152475 0.0
0.0960213 -0.000832217 0.0
0.166223 -0.00227327 0.0
0.214478 -0.00347557 0.0
0.192958 -0.00290976 0.0
0 0 0.0
0 0 0.0
0.182388 -0.00246702 0.0
0.154107 -0.00194072 0.0
0.121448 -0.00129343 0.0
0.0843574 -0.000701408 0.0
0.0437208 -0.000208743 0.0
0.242212 -0.00418392 0.0
0.248476 -0.0041474 0.0
0.237655 -0.00374592 0.0
0.249801 -0.00436256 0.0
0.246193 -0.00404029 0.0
0.224191 -0.00336641 0.0
0.205592 -0.00304654 0.0
0.242377 -0.00454918 0.0
0.231099 -0.00416279 0.0
0.0521018 -0.000284648 0.0
0.0967246 -0.000932795 0.0
0.134713 -0.00171896 0.0
0.166796 -0.00249732 0.0
0.214972 -0.00387489 0.0
0.193417 -0.00317607 0.0
0 0 0.0
0 0 0.0
0.1536 -0.00207114 0.0
0.181669 -0.00274365 0.0
0.0838212 -0.000754108 0.0
0.120698 -0.0014241 0.0
0.043322 -0.000228597 0.0
0.248584 -0.00478255 0.0
0.249729 -0.00481317 0.0
0.205091 -0.00332666 0.0
0.237421 -0.00402827 0.0
0.246055 -0.00435383 0.0
0.223651 -0.00380106 0.0
0.242555 -0.00493125 0.0
0.231614 -0.00481204 0.0
0.215504 -0.00433214 0.0
0.05268 -0.000324681 0.0
0.0975225 -0.00106098 0.0
0.135693 -0.00198125 0.0
0.16758 -0.00280411 0.0
0.194254 -0.00366881 0.0
0 0 0.0
0 0 0.0
0.152768 -0.0022832 0.0
0.181026 -0.00298917 0.0
0.0831135 -0.000824082 0.0
0.119983 -0.00154107 0.0
0.0428719 -0.000247412 0.0
0.245897 -0.00468762 0.0
0.24964 -0.00529748 0.0
0.248636 -0.00529608 0.0
0.204535 -0.00362372 0.0
0.237102 -0.00441739 0.0
0.223195 -0.00416456 0.0
0.180321 -0.00324279 0.0
0.242858 -0.00569881 0.0
0 0 0.0
0.231999 -0.00537968 0.0
0.195001 -0.00413811 0.0
0.216075 -0.00484659 0.0
0.0532862 -0.000372839 0.0
0.136516 -0.00221919 0.0
0.0985303 -0.00123921 0.0
0.168629 -0.00326536 0.0
0 0 0.0
0 0 0.0
0 0 0.0
0 0 0.0
0 0 0.0
0.0424303 -0.000264174 0.0
0.119203 -0.00166491 0.0
0.152002 -0.00247236 0.0
0.0824861 -0.000882805 0.0
0.24566 -0.00513939 0.0
0.249518 -0.00583308 0.0
0.248685 -0.00586034 0.0
0.222777 -0.00446451 0.0
0.203916 -0.00393962 0.0
0.236568 -0.00500593 0.0
0.203343 -0.00421911 0.0
0.179746 -0.00343425 0.0
0.243064 -0.0063373 0.0
0.232413 -0.00599988 0.0
0 0 0.0
8.90599e-05 -4.13872e-05 0.0
0 0 0.0
-0.00020883 0.000843492 0.0
0.216693 -0.00544283 0.0
0.195612 -0.00453245 0.0
0.0540488 -0.000438224 0.0
0.137586 -0.00254033 0.0
0.0995826 -0.00143864 0.0
0.169623 -0.00372695 0.0
0 0 0.0
0 0 0.0
0 0 0.0
-0.000140409 0.000322329 0.0
1.98409e-05 -0.000175622 0.0
0.000114516 -0.00013036 0.0
0 0 0.0
0.0419276 -0.000284717 0.0
0.118498 -0.00176655 0.0
0.151169 -0.00266182 0.0
0.0816649 -0.000952775 0.0
0.245388 -0.0056414 0.0
0.249358 -0.00641542 0.0
0.248707 -0.00647526 0.0
0.22232 -0.00478779 0.0
0.236223 -0.00538261 0.0
0.202714 -0.0045021 0.0
0.178702 -0.0037635 0.0
0.24327 -0.00703623 0.0
0.235889 -0.00675475 0.0
0.225647 -0.00633595 0.0
0 0 0.0
0.000190955 -3.52449e-05 0.0
0 0 0.0
0 0 0.0
-0.000778097 0.0022461 0.0
-0.00067659 0.00127041 0.0
0.21252 -0.00581763 0.0
0.19647 -0.00513841 0.0
0.100669 -0.00165974 0.0
0.054865 -0.000523149 0.0
0.138791 -0.00294025 0.0
0.170704 -0.00427223 0.0
0 0 0.0
-0.000156384 -1.18826e-05 0.0
-0.000401325 0.000467128 0.0
-1.67383e-05 -0.000114545 0.0
0.000100612 -2.07489e-05 0.0
0 0 0.0
0.041392 -0.000304389 0.0
0.117608 -0.00188679 0.0
0.150269 -0.00284592 0.0
0.0808585 -0.00101654 0.0
0.24506 -0.00617686 0.0
0.249158 -0.00704558 0.0
0.248697 -0.00714952 0.0
0.221473 -0.00535459 0.0
0.23583 -0.00576486 0.0
0.201899 -0.00485635 0.0
0.149289 -0.00304312 0.0
0.177771 -0.00404095 0.0
0.243417 -0.00764098 0.0
0.233105 -0.00721448 0.0
0.217812 -0.00667151 0.0
0 0 0.0
0.000177371 2.80098e-05 0.0
0 0 0.0
0 0 0.0
0 0 0.0
0 0 0.0
-0.00114942 0.00139648 0.0
-0.000245245 0.00210732 0.0
-0.000846119 0.00313996 0.0
-0.00191654 0.00425186 0.0
-0.00149819 0.00265758 0.0
0 0 0.0
-0.000101738 0.00387879 0.0
0.197619 -0.00605822 0.0
0.171643 -0.0048042 0.0
0 0 0.0
0.055932 -0.000647382 0.0
0.10205 -0.00197789 0.0
0.140365 -0.00355941 0.0
0 0 0.0
0 0 0.0
-0.000568175 0.000494732 0.0
-0.000300879 0.000229021 0.0