# vtk DataFile Version 3.0
Mesh NS-CD Problem
ASCII
DATASET UNSTRUCTURED_GRID
POINTS 10839 float
-2 0.3 0.0
-2 0.4 0.0
-2 0.35 0.0
-2 0.45 0.0
-2 0.5 0.0
-2 0.55 0.0
-2 0 0.0
-2 0.05 0.0
-2 0.85 0.0
-2 0.9 0.0
-2 0.1 0.0
-2 0.15 0.0
-2 0.25 0.0
-2 0.2 0.0
-1.96653 0.266667 0.0
-1.96524 0.415385 0.0
-1.96485 0.315 0.0
-1.96348 0.363636 0.0
-1.96414 0.464286 0.0
-2 0.6 0.0
-1.96538 0.584615 0.0
-1.96538 0.538462 0.0
-1.94979 0 0.0
-1.96653 0.0666666 0.0
-1.93306 0.0333333 0.0
-2 0.8 0.0
-2 0.75 0.0
-2 0.7 0.0
-2 0.65 0.0
-1.96249 0.7375 0.0
-1.96666 0.833333 0.0
-2 1 0.0
-2 0.95 0.0
-1.96249 0.8875 0.0
-1.96666 0.933333 0.0
-1.96234 0.1125 0.0
-1.96653 0.166667 0.0
-1.93724 0.225 0.0
-1.92971 0.28 0.0
-1.93048 0.380769 0.0
-1.93048 0.423077 0.0
-1.89958 0.3375 0.0
-1.9292 0.484203 0.0
-1.92117 0.530907 0.0
-1.96363 0.636364 0.0
-1.93076 0.576923 0.0
-1.89958 0 0.0
-1.88703 0.0375 0.0
-1.90963 0.08 0.0
-1.86611 0.0666666 0.0
-1.93749 0.775 0.0
-1.93635 0.672727 0.0
-1.92999 0.72 0.0
-1.93332 0.866667 0.0
-1.92856 0.821429 0.0
-1.94999 1 0.0
-1.92499 0.9625 0.0
-1.92499 0.925 0.0
-1.89998 0.9 0.0
-1.89958 0.125 0.0
-1.92827 0.178571 0.0
-1.89958 0.233333 0.0
-1.89045 0.290909 0.0
-1.86096 0.311538 0.0
-1.89241 0.392857 0.0
-1.89334 0.448489 0.0
-1.85655 0.357143 0.0
-1.89614 0.653846 0.0
-1.89427 0.504121 0.0
-1.8952 0.559753 0.0
-1.89614 0.615385 0.0
-1.84937 0 0.0
-1.83264 0.0333333 0.0
-1.85655 0.107143 0.0
-1.81172 0.075 0.0
-1.89998 0.766667 0.0
-1.89089 0.709091 0.0
-1.87498 0.85 0.0
-1.85998 0.79 0.0
-1.88748 0.8125 0.0
-1.89998 1 0.0
-1.88748 0.9625 0.0
-1.86664 0.933333 0.0
-1.85712 0.892857 0.0
-1.87448 0.15 0.0
-1.86611 0.194444 0.0
-1.83264 0.133333 0.0
-1.83264 0.2625 0.0
-1.82068 0.321429 0.0
-1.85664 0.404762 0.0
-1.85674 0.452381 0.0
-1.85683 0.5 0.0
-1.81184 0.375 0.0
-1.85712 0.642857 0.0
-1.85693 0.547619 0.0
-1.85702 0.595238 0.0
-1.79917 0 0.0
-1.78482 0.0357143 0.0
-1.79917 0.116667 0.0
-1.76569 0.0666666 0.0
-1.85452 0.745455 0.0
-1.82689 0.692308 0.0
-1.81815 0.781818 0.0
-1.82497 0.825 0.0
-1.84997 1 0.0
-1.8333 0.958333 0.0
-1.81247 0.8875 0.0
-1.81247 0.925 0.0
-1.81742 0.218182 0.0
-1.82427 0.175 0.0
-1.77634 0.145455 0.0
-1.79144 0.242308 0.0
-1.78482 0.285714 0.0
-1.77469 0.332653 0.0
-1.81215 0.529762 0.0
-1.81194 0.422619 0.0
-1.81203 0.470238 0.0
-1.76714 0.392857 0.0
-1.81234 0.625 0.0
-1.79732 0.571429 0.0
-1.74896 0 0.0
-1.73222 0.0333333 0.0
-1.75398 0.105 0.0
-1.71883 0.07 0.0
-1.79227 0.730769 0.0
-1.78007 0.679121 0.0
-1.75765 0.769231 0.0
-1.78178 0.818182 0.0
-1.78996 0.86 0.0
-1.79996 1 0.0
-1.78568 0.964286 0.0
-1.76663 0.922222 0.0
-1.76569 0.1875 0.0
-1.73222 0.15 0.0
-1.74896 0.25 0.0
-1.73714 0.304762 0.0
-1.76743 0.537202 0.0
-1.72869 0.343878 0.0
-1.76732 0.485119 0.0
-1.76723 0.440476 0.0
-1.72243 0.410714 0.0
-1.76757 0.607143 0.0
-1.69875 0 0.0
-1.68369 0.035 0.0
-1.69875 0.1125 0.0
-1.66528 0.075 0.0
-1.74341 0.708974 0.0
-1.73324 0.665934 0.0
-1.70441 0.74478 0.0
-1.71423 0.785714 0.0
-1.72303 0.826923 0.0
-1.74541 0.854545 0.0
-1.74541 0.890909 0.0
-1.74996 1 0.0
-1.73745 0.9625 0.0
-1.71359 0.927273 0.0
-1.68716 0.153846 0.0
-1.7131 0.214286 0.0
-1.70725 0.275 0.0
-1.69712 0.321939 0.0
-1.72279 0.589286 0.0
-1.72261 0.5 0.0
-1.7227 0.544643 0.0
-1.6827 0.355102 0.0
-1.67773 0.428571 0.0
-1.70763 0.464286 0.0
-1.70369 0.62449 0.0
-1.64854 0 0.0
-1.63181 0.0375 0.0
-1.64137 0.142857 0.0
-1.61764 0.0769231 0.0
-1.69458 0.703846 0.0
-1.67471 0.657437 0.0
-1.66143 0.727637 0.0
-1.67125 0.768571 0.0
-1.67851 0.821429 0.0
-1.68841 0.861538 0.0
-1.70904 0.890909 0.0
-1.69995 1 0.0
-1.68176 0.963636 0.0
-1.67267 0.927273 0.0
-1.65427 0.187143 0.0
-1.66718 0.231429 0.0
-1.66554 0.3 0.0
-1.67802 0.571429 0.0
-1.67792 0.523809 0.0
-1.6367 0.366327 0.0
-1.63682 0.423469 0.0
-1.62568 0.502976 0.0
-1.6629 0.470238 0.0
-1.65254 0.618367 0.0
-1.6059 0.307143 0.0
-1.59833 0 0.0
-1.58288 0.0384615 0.0
-1.60563 0.169643 0.0
-1.58179 0.112271 0.0
-1.56964 0.0714286 0.0
-1.64574 0.690385 0.0
-1.62827 0.751429 0.0
-1.63371 0.791071 0.0
-1.64279 0.857143 0.0
-1.65378 0.896154 0.0
-1.64994 1 0.0
-1.6363 0.963636 0.0
-1.61916 0.930769 0.0
-1.61345 0.209107 0.0
-1.62126 0.248571 0.0
-1.56989 0.196429 0.0
-1.63324 0.553571 0.0
-1.58846 0.535714 0.0
-1.59408 0.361905 0.0
-1.59161 0.402211 0.0
-1.58832 0.464286 0.0
-1.61504 0.598581 0.0
-1.59683 0.64359 0.0
-1.57899 0.274107 0.0
-1.56176 0.322381 0.0
-1.54812 0 0.0
-1.53378 0.0357143 0.0
-1.54593 0.147619 0.0
-1.53385 0.0732143 0.0
-1.53393 0.110714 0.0
-1.58522 0.704286 0.0
-1.58709 0.745 0.0
-1.58896 0.785714 0.0
-1.60695 0.830357 0.0
-1.60707 0.892857 0.0
-1.59993 1 0.0
-1.58454 0.965385 0.0
-1.57135 0.928571 0.0
-1.55209 0.241071 0.0
-1.5291 0.198214 0.0
-1.56936 0.570918 0.0
-1.54369 0.517857 0.0
-1.5464 0.380952 0.0
-1.54564 0.427721 0.0
-1.54488 0.47449 0.0
-1.55026 0.606122 0.0
-1.54222 0.677143 0.0
-1.52943 0.282857 0.0
-1.52143 0.33619 0.0
-1.49792 0 0.0
-1.49802 0.05 0.0
-1.49822 0.15 0.0
-1.49312 0.1 0.0
-1.5423 0.717143 0.0
-1.54419 0.767857 0.0
-1.54727 0.819048 0.0
-1.57122 0.861905 0.0
-1.53553 0.914286 0.0
-1.54992 1 0.0
-1.53563 0.964286 0.0
-1.49842 0.25 0.0
-1.48831 0.2 0.0
-1.5214 0.558929 0.0
-1.49891 0.5 0.0
-1.49871 0.4 0.0
-1.47631 0.45 0.0
-1.49911 0.6 0.0
-1.49921 0.65 0.0
-1.49931 0.7 0.0
-1.48111 0.35 0.0
-1.48351 0.3 0.0
-1.44771 0 0.0
-1.44782 0.05 0.0
-1.44804 0.15 0.0
-1.44793 0.1 0.0
-1.49941 0.75 0.0
-1.49951 0.8 0.0
-1.49981 0.95 0.0
-1.49961 0.85 0.0
-1.49971 0.9 0.0
-1.49991 1 0.0
-1.44826 0.25 0.0
-1.43815 0.2 0.0
-1.47151 0.55 0.0
-1.44881 0.5 0.0
-1.44859 0.4 0.0
-1.42619 0.45 0.0
-1.44913 0.65 0.0
-1.44902 0.6 0.0
-1.44935 0.75 0.0
-1.44924 0.7 0.0
-1.43972 0.35 0.0
-1.43336 0.3 0.0
-1.3975 0 0.0
-1.39762 0.05 0.0
-1.39786 0.15 0.0
-1.39274 0.1 0.0
-1.44957 0.85 0.0
-1.44946 0.8 0.0
-1.4523 0.95 0.0
-1.44968 0.9 0.0
-1.4499 1 0.0
-1.3981 0.25 0.0
-1.38798 0.2 0.0
-1.42141 0.55 0.0
-1.3987 0.5 0.0
-1.39834 0.35 0.0
-1.37845 0.4 0.0
-1.37607 0.45 0.0
-1.40784 0.65 0.0
-1.39894 0.6 0.0
-1.41185 0.75 0.0
-1.39918 0.7 0.0
-1.38322 0.3 0.0
-1.34729 0 0.0
-1.34492 0.05 0.0
-1.34018 0.15 0.0
-1.34255 0.1 0.0
-1.40707 0.85 0.0
-1.39941 0.8 0.0
-1.39977 0.95 0.0
-1.39965 0.9 0.0
-1.39989 1 0.0
-1.33781 0.2 0.0
-1.33544 0.25 0.0
-1.37131 0.55 0.0
-1.34859 0.5 0.0
-1.33833 0.4 0.0
-1.3307 0.35 0.0
-1.32595 0.45 0.0
-1.34885 0.6 0.0
-1.36655 0.65 0.0
-1.36179 0.75 0.0
-1.34911 0.7 0.0
-1.33307 0.3 0.0
-1.29708 0 0.0
-1.29722 0.05 0.0
-1.2975 0.15 0.0
-1.29236 0.1 0.0
-1.35703 0.85 0.0
-1.34937 0.8 0.0
-1.34988 1 0.0
-1.34962 0.9 0.0
-1.35226 0.95 0.0
-1.28528 0.25 0.0
-1.28764 0.2 0.0
-1.28931 0.35 0.0
-1.32121 0.55 0.0
-1.29848 0.5 0.0
-1.28709 0.45 0.0
-1.2982 0.4 0.0
-1.29876 0.6 0.0
-1.31647 0.65 0.0
-1.29918 0.75 0.0
-1.29904 0.7 0.0
-1.28292 0.3 0.0
-1.24687 0 0.0
-1.24702 0.05 0.0
-1.24717 0.1 0.0
-1.24732 0.15 0.0
-1.29946 0.85 0.0
-1.29932 0.8 0.0
-1.29987 1 0.0
-1.29974 0.95 0.0
-1.30462 0.9 0.0
-1.24762 0.25 0.0
-1.23747 0.2 0.0
-1.24792 0.35 0.0
-1.22807 0.4 0.0
-1.27111 0.55 0.0
-1.24837 0.5 0.0
-1.24822 0.45 0.0
-1.24867 0.6 0.0
-1.26639 0.65 0.0
-1.26167 0.75 0.0
-1.24897 0.7 0.0
-1.23277 0.3 0.0
-1.19667 0 0.0
-1.19683 0.05 0.0
-1.18964 0.15 0.0
-1.19198 0.1 0.0
-1.25695 0.85 0.0
-1.24927 0.8 0.0
-1.25223 0.95 0.0
-1.24987 1 0.0
-1.24957 0.9 0.0
-1.1873 0.2 0.0
-1.18496 0.25 0.0
-1.18028 0.35 0.0
-1.17794 0.4 0.0
-1.1981 0.45 0.0
-1.19842 0.55 0.0
-1.19826 0.5 0.0
-1.19858 0.6 0.0
-1.19874 0.65 0.0
-1.19906 0.75 0.0
-1.1989 0.7 0.0
-1.18262 0.3 0.0
-1.14646 0 0.0
-1.14663 0.05 0.0
-1.1418 0.1 0.0
-1.13713 0.2 0.0
-1.14697 0.15 0.0
-1.20691 0.85 0.0
-1.20926 0.8 0.0
-1.20221 0.95 0.0
-1.19986 1 0.0
-1.20456 0.9 0.0
-1.13997 0.3 0.0
-1.14731 0.25 0.0
-1.13781 0.4 0.0
-1.13014 0.35 0.0
-1.12548 0.45 0.0
-1.14815 0.5 0.0
-1.15962 0.55 0.0
-1.14849 0.6 0.0
-1.15745 0.65 0.0
-1.16155 0.75 0.0
-1.14917 0.8 0.0
-1.14883 0.7 0.0
-1.09625 0 0.0
-1.09661 0.1 0.0
-1.09393 0.05 0.0
-1.09697 0.2 0.0
-1.08929 0.15 0.0
-1.15687 0.85 0.0
-1.14985 1 0.0
-1.15219 0.95 0.0
-1.14951 0.9 0.0
-1.09733 0.3 0.0
-1.08465 0.25 0.0
-1.09769 0.4 0.0
-1.08 0.35 0.0
-1.08661 0.45 0.0
-1.09804 0.5 0.0
-1.12082 0.55 0.0
-1.10916 0.8 0.0
-1.10629 0.7 0.0
-1.0984 0.6 0.0
-1.11616 0.65 0.0
-1.11149 0.75 0.0
-1.04604 0 0.0
-1.04623 0.05 0.0
-1.04642 0.1 0.0
-1.0468 0.2 0.0
-1.03911 0.15 0.0
-1.09948 0.9 0.0
-1.0993 0.85 0.0
-1.09984 1 0.0
-1.09966 0.95 0.0
-1.04718 0.3 0.0
-1.03449 0.25 0.0
-1.04756 0.4 0.0
-1.02986 0.35 0.0
-1.04775 0.45 0.0
-1.04794 0.5 0.0
-1.04813 0.55 0.0
-1.05911 0.8 0.0
-1.04831 0.6 0.0
-1.06376 0.7 0.0
-1.0485 0.65 0.0
-1.04888 0.75 0.0
-0.995833 0 0.0
-0.991231 0.1 0.0
-0.996033 0.05 0.0
-0.986629 0.2 0.0
-0.98893 0.15 0.0
-1.05447 0.9 0.0
-1.04926 0.85 0.0
-1.04983 1 0.0
-1.04964 0.95 0.0
-0.984328 0.25 0.0
-0.99703 0.3 0.0
-0.997429 0.4 0.0
-0.997628 0.45 0.0
-0.979726 0.35 0.0
-0.997827 0.5 0.0
-0.998027 0.55 0.0
-0.998226 0.6 0.0
-0.961416 0.475 0.0
-1.00907 0.8 0.0
-0.998426 0.65 0.0
-0.998625 0.7 0.0
-1.01138 0.75 0.0
-0.945625 0 0.0
-0.946044 0.1 0.0
-0.943334 0.05 0.0
-0.946463 0.2 0.0
-0.938752 0.15 0.0
-1.00444 0.9 0.0
-1.00675 0.85 0.0
-0.999821 1 0.0
-1.00213 0.95 0.0
-0.93417 0.25 0.0
-0.946881 0.3 0.0
-0.9473 0.4 0.0
-0.929588 0.35 0.0
-0.925005 0.45 0.0
-0.960371 0.525 0.0
-0.959325 0.575 0.0
-0.958279 0.625 0.0
-0.922714 0.5 0.0
-0.959017 0.8 0.0
-0.957233 0.675 0.0
-0.952999 0.7125 0.0
-0.948766 0.75 0.0
-0.895417 0 0.0
-0.895855 0.1 0.0
-0.893136 0.05 0.0
-0.896294 0.2 0.0
-0.888573 0.15 0.0
-0.949184 0.85 0.0
-0.954415 0.9 0.0
-0.949812 1 0.0
-0.949603 0.95 0.0
-0.884011 0.25 0.0
-0.896733 0.3 0.0
-0.874887 0.45 0.0
-0.879449 0.35 0.0
-0.897171 0.4 0.0
-0.920423 0.55 0.0
-0.918132 0.6 0.0
-0.915841 0.65 0.0
-0.872606 0.5 0.0
-0.908968 0.8 0.0
-0.91355 0.7 0.0
-0.898707 0.75 0.0
-0.845208 0 0.0
-0.845438 0.05 0.0
-0.845667 0.1 0.0
-0.845896 0.15 0.0
-0.833853 0.25 0.0
-0.846126 0.2 0.0
-0.899146 0.85 0.0
-0.904386 0.9 0.0
-0.899584 0.95 0.0
-0.899804 1 0.0
-0.838062 0.35 0.0
[...]
POINT_DATA 10839
VECTORS Velocity float
0.21 0 0.0
0.24 0 0.0
0.2275 0 0.0
0.2475 0 0.0
0.25 0 0.0
0.2475 0 0.0
0 0 0.0
0.0475 0 0.0
0.1275 0 0.0
0.09 0 0.0
0.09 0 0.0
0.1275 0 0.0
0.1875 0 0.0
0.16 0 0.0
0.195557 -2.18681e-05 0.0
0.24284 -2.70345e-05 0.0
0.215776 -2.57689e-05 0.0
0.231405 -2.81747e-05 0.0
0.248724 -2.65771e-05 0.0
0.24 0 0.0
0.242839 -2.05049e-05 0.0
0.24852 -2.3147e-05 0.0
0 0 0.0
0.0622237 -3.67943e-06 0.0
0.0322264 -2.5703e-06 0.0
0.16 0 0.0
0.1875 0 0.0
0.21 0 0.0
0.2275 0 0.0
0.193593 -1.50863e-05 0.0
0.138888 -9.1028e-06 0.0
0 0 0.0
0.0475 0 0.0
0.0998424 -6.69074e-06 0.0
0.0622211 -2.90671e-06 0.0
0.0998459 -9.58274e-06 0.0
0.13889 -1.34913e-05 0.0
0.17438 -3.47725e-05 0.0
0.201605 -4.80186e-05 0.0
0.235785 -5.49699e-05 0.0
0.244082 -5.44488e-05 0.0
0.223599 -7.80033e-05 0.0
0.249747 -5.11116e-05 0.0
0.24904 -5.20986e-05 0.0
0.231404 -1.91948e-05 0.0
0.244079 -4.03077e-05 0.0
0 0 0.0
0.036107 -5.27531e-06 0.0
0.0736112 -1.37371e-05 0.0
0.062246 -1.51812e-05 0.0
0.174373 -2.05961e-05 0.0
0.220163 -2.82265e-05 0.0
0.201597 -2.7465e-05 0.0
0.115552 -1.3569e-05 0.0
0.14668 -1.97873e-05 0.0
0 0 0.0
0.0360896 -2.22135e-06 0.0
0.0693694 -7.17909e-06 0.0
0.0899901 -1.37032e-05 0.0
0.10939 -2.82803e-05 0.0
0.146691 -3.09154e-05 0.0
0.178902 -5.98626e-05 0.0
0.206291 -7.90169e-05 0.0
0.214496 -0.000108577 0.0
0.23852 -8.66812e-05 0.0
0.247342 -8.22709e-05 0.0
0.229597 -0.000118707 0.0
0.226324 -4.59297e-05 0.0
0.249975 -7.30665e-05 0.0
0.246421 -6.27167e-05 0.0
0.236678 -5.28755e-05 0.0
0 0 0.0
0.0322485 -5.48903e-06 0.0
0.0956925 -3.14368e-05 0.0
0.0694208 -1.96645e-05 0.0
0.178883 -3.20495e-05 0.0
0.206274 -4.09527e-05 0.0
0.127488 -2.69409e-05 0.0
0.16589 -3.88383e-05 0.0
0.152336 -3.03751e-05 0.0
0 0 0.0
0.0360851 -2.80301e-06 0.0
0.0622061 -9.31335e-06 0.0
0.095644 -2.15379e-05 0.0
0.127523 -4.39301e-05 0.0
0.156661 -6.63997e-05 0.0
0.115598 -4.81286e-05 0.0
0.193626 -0.000117239 0.0
0.218132 -0.000149554 0.0
0.240926 -0.000118066 0.0
0.247721 -0.000111475 0.0
0.249984 -9.99988e-05 0.0
0.234377 -0.000164705 0.0
0.229577 -6.03159e-05 0.0
0.247714 -8.63429e-05 0.0
0.240912 -7.26006e-05 0.0
0 0 0.0
0.034479 -4.36423e-06 0.0
0.103115 -4.1198e-05 0.0
0.0622834 -8.59782e-06 0.0
0.189742 -4.44149e-05 0.0
0.213001 -5.61664e-05 0.0
0.170564 -4.67908e-05 0.0
0.144358 -4.07202e-05 0.0
0 0 0.0
0.0399111 -5.54003e-06 0.0
0.0998123 -3.33758e-05 0.0
0.0693415 -1.95149e-05 0.0
0.170628 -0.000106402 0.0
0.144423 -7.5091e-05 0.0
0.124381 -6.47559e-05 0.0
0.183656 -0.000142477 0.0
0.204129 -0.000176628 0.0
0.22202 -0.000206441 0.0
0.24908 -0.000117611 0.0
0.243998 -0.000158154 0.0
0.249088 -0.000142777 0.0
0.238508 -0.000215455 0.0
0.234346 -7.52213e-05 0.0
0.244857 -0.000102581 0.0
0 0 0.0
0.0322629 2.8985e-06 0.0
0.0940644 -2.51088e-05 0.0
0.0651746 1.07988e-05 0.0
0.196728 -5.06669e-05 0.0
0.217885 -5.86744e-05 0.0
0.177502 -4.76215e-05 0.0
0.148742 -5.15992e-05 0.0
0.12037 -4.65874e-05 0.0
0 0 0.0
0.0344065 -8.23583e-06 0.0
0.0716723 -3.79137e-05 0.0
0.15244 -0.000112959 0.0
0.127637 -7.2232e-05 0.0
0.187593 -0.00019134 0.0
0.211942 -0.000249968 0.0
0.248555 -0.000133353 0.0
0.225649 -0.000276837 0.0
0.249725 -0.00017119 0.0
0.246419 -0.00019774 0.0
0.241985 -0.00027 0.0
0.238467 -8.80365e-05 0.0
0 0 0.0
0.0337972 1.55064e-05 0.0
0.0999963 -6.40636e-06 0.0
0.0694622 4.3543e-05 0.0
0.206302 -4.17379e-05 0.0
0.222415 -4.89397e-05 0.0
0.190075 -2.30423e-05 0.0
0.16837 -4.50458e-05 0.0
0.143113 -6.74015e-05 0.0
0.124269 -6.72897e-05 0.0
0.0971373 -6.49104e-05 0.0
0 0 0.0
0.03603 -1.86418e-05 0.0
0.0673388 -6.73272e-05 0.0
0.1304 -8.1177e-05 0.0
0.168529 -0.000186257 0.0
0.199489 -0.00027768 0.0
0.218352 -0.00033032 0.0
0.241936 -0.000100256 0.0
0.249906 -0.00019121 0.0
0.247906 -0.000143045 0.0
0.229013 -0.000363969 0.0
0.244798 -0.000324241 0.0
0.24863 -0.000243302 0.0
0.23441 -5.8638e-05 0.0
0 0 0.0
0.0360657 3.24823e-05 0.0
0.122779 -6.00516e-05 0.0
0.0711056 6.3495e-05 0.0
0.20841 -9.73571e-06 0.0
0.225124 -8.92719e-06 0.0
0.198172 2.73674e-05 0.0
0.177896 -8.84204e-06 0.0
0.146714 -6.84565e-05 0.0
0.119275 -0.000104021 0.0
0.0971286 -9.41106e-05 0.0
0 0 0.0
0.0349109 -3.47833e-05 0.0
0.0672884 -0.000100187 0.0
0.152432 -0.00018861 0.0
0.1781 -0.000287648 0.0
0.210113 -0.000389284 0.0
0.244746 -0.000110766 0.0
0.249273 -0.000186902 0.0
0.2321 -0.000469042 0.0
0.243993 -0.000407535 0.0
0.249731 -0.000253664 0.0
0.248953 -0.000285295 0.0
0.235833 -2.39385e-05 0.0
0.212946 -0.000581401 0.0
0 0 0.0
0.0368893 3.83929e-05 0.0
0.141357 -0.000197938 0.0
0.10006 -1.43612e-05 0.0
0.0664034 5.32978e-05 0.0
0.21369 5.16227e-05 0.0
0.18683 6.93951e-05 0.0
0.165369 3.94087e-06 0.0
0.122487 -0.000119219 0.0
0.0929788 -0.000141678 0.0
0 0 0.0
0.0348221 -4.9923e-05 0.0
0.0641926 -0.000129227 0.0
0.165803 -0.00034081 0.0
0.187086 -0.000439695 0.0
0.158477 -0.000430998 0.0
0.246889 -0.000129555 0.0
0.248352 -0.000175105 0.0
0.230875 -0.000616446 0.0
0.240252 -0.000558799 0.0
0.248402 -0.000400078 0.0
0.240035 -1.52665e-05 0.0
0.229179 0.000107358 0.0
0.199277 -0.000656087 0.0
0.218538 -0.000780013 0.0
0 0 0.0
0.0342915 2.30003e-05 0.0
0.126579 -0.000270125 0.0
0.0679928 1.90508e-06 0.0
0.0990145 -0.000128436 0.0
0.20822 0.000203784 0.0
0.190051 0.000185347 0.0
0.168541 0.000104386 0.0
0.141018 -4.43949e-05 0.0
0.0955989 -0.000158089 0.0
0 0 0.0
0.0330796 -5.50557e-05 0.0
0.0660151 -0.000128973 0.0
0.183494 -0.000702136 0.0
0.159764 -0.000647288 0.0
0.24456 -3.54663e-05 0.0
0.249127 -0.000244272 0.0
0.235617 -0.000775194 0.0
0.244383 -0.000627496 0.0
0.248838 -0.000441367 0.0
0.238326 0.000130332 0.0
0.218428 0.000346233 0.0
0.203186 -0.000949077 0.0
0.223142 -0.000996183 0.0
0 0 0.0
0.0474609 -2.15328e-05 0.0
0.128556 -0.000565814 0.0
0.0906473 -0.000260958 0.0
0.202844 0.000382465 0.0
0.178478 0.000317353 0.0
0.148553 0.000149867 0.0
0.119187 -7.05901e-05 0.0
0.078168 -7.82181e-05 0.0
0 0 0.0
0.0339848 -5.10611e-05 0.0
0.188155 -0.00110489 0.0
0.161058 -0.000973096 0.0
0.245888 -2.03002e-05 0.0
0.249213 -0.000356301 0.0
0.239528 -0.000936296 0.0
0.246681 -0.000738841 0.0
0.239339 0.000255391 0.0
0.22706 0.000479709 0.0
0.209867 0.00062089 0.0
0.227289 -0.00123741 0.0
0.210227 -0.00130705 0.0
0 0 0.0
0.0476723 -0.000135085 0.0
0.128945 -0.0010578 0.0
0.0910092 -0.000563316 0.0
0.187707 0.000622896 0.0
0.160486 0.000498649 0.0
0.0470204 -2.66123e-05 0.0
0.127984 0.000285743 0.0
0.0900414 7.82663e-05 0.0
0 0 0.0
0.188298 -0.00160465 0.0
0.161346 -0.00153274 0.0
0.246531 -4.24213e-06 0.0
0.248827 -0.000406124 0.0
0.239246 -0.001212 0.0
0.246255 -0.000926079 0.0
0.226831 0.000783765 0.0
0.239017 0.000452119 0.0
0.187756 0.00106845 0.0
0.209755 0.00100394 0.0
0.227133 -0.00157104 0.0
0.210178 -0.00180447 0.0
0 0 0.0
0.0481381 -0.00030354 0.0
0.129427 -0.00175725 0.0
0.091766 -0.00110165 0.0
0.128245 0.00075273 0.0
0.160658 0.000971985 0.0
0.0471272 7.84174e-05 0.0
0.0903188 0.000395602 0.0
0 0 0.0
0.188384 -0.0022815 0.0
0.161615 -0.00230369 0.0
0.246088 9.48894e-05 0.0
0.248309 -0.000450369 0.0
0.226888 -0.00197375 0.0
0.23865 -0.00172499 0.0
0.245708 -0.00114275 0.0
0.226554 0.00110056 0.0
0.238564 0.000710448 0.0
0.187741 0.00151006 0.0
0.209559 0.00152307 0.0
0.210041 -0.00243322 0.0
0 0 0.0
0.0489603 -0.00050961 0.0
0.130174 -0.00280521 0.0
0.0928194 -0.00171579 0.0
0.128524 0.00130717 0.0
0.160801 0.00165206 0.0
0.0474913 0.000235076 0.0
0.0908287 0.000847497 0.0
0 0 0.0
0.161853 -0.00328564 0.0
0.188365 -0.00338225 0.0
0.245485 0.000217555 0.0
0.247608 -0.000504749 0.0
0.238141 -0.00208145 0.0
0.226304 -0.00278051 0.0
0.244961 -0.0014001 0.0
0.237949 0.00103277 0.0
0.226177 0.00149009 0.0
0.187641 0.0022608 0.0
0.209228 0.00217467 0.0
0.209775 -0.00321772 0.0
0 0 0.0
0.0500518 -0.000711228 0.0
0.130874 -0.0036911 0.0
0.0943114 -0.00239722 0.0
0.128978 0.00213272 0.0
0.160901 0.00254046 0.0
0 0 0.0
0.0917102 0.00142662 0.0
0.0480949 0.0004103 0.0
0.188182 -0.00448664 0.0
0.162066 -0.00445975 0.0
0.225763 -0.00338254 0.0
0.244694 0.000372786 0.0
0.246707 -0.000562881 0.0
0.244233 -0.00162603 0.0
0.237523 -0.00248349 0.0
0.237131 0.00141697 0.0
0.22557 0.00205168 0.0
0.187328 0.00345615 0.0
0.208728 0.00296022 0.0
0.209343 -0.00413325 0.0
0 0 0.0
0.0516472 -0.000933359 0.0
0.096047 -0.00301823 0.0
0.131946 -0.00480056 0.0
0.12973 0.00327216 0.0
0.160955 0.00361369 0.0
0 0 0.0
0.0491482 0.000623878 0.0
0.0928286 0.00201586 0.0
0.187948 -0.00540086 0.0
0.162292 -0.00575359 0.0
0.225086 -0.00406008 0.0
0.236099 -0.00329565 0.0
0.243674 0.000552568 0.0
0.245558 -0.000622057 0.0
0.243368 -0.00188218 0.0
0.236084 0.00186113 0.0
0.224747 0.00271144 0.0
0.186987 0.00428559 0.0
0.208022 0.00388025 0.0
0.208701 -0.00518887 0.0
0 0 0.0
0.053616 -0.00111568 0.0
0.133701 -0.0060841 0.0
0.0987988 -0.00375258 0.0
0.130464 0.00417212 0.0
0.161002 0.00482924 0.0
0.0505042 0.000824748 0.0
0 0 0.0
0.0947028 0.00274894 0.0
0.162586 -0.00711663 0.0
0.187426 -0.00710066 0.0
0.223624 -0.00530384 0.0
0.234737 -0.00395977 0.0
0.241997 -0.00224945 0.0
0.241743 0.000861743 0.0
0.244138 -0.000702487 0.0
0.23477 0.00235935 0.0
0.223255 0.00375399 0.0
0.186289 0.00584257 0.0
0.207074 0.00491618 0.0
0.207844 -0.00637507 0.0
0 0 0.0
0.0559542 -0.00129359 0.0
0.101701 -0.00431643 0.0
0.163057 -0.0084757 0.0
0.135229 -0.00697416 0.0
0.131654 0.00524172 0.0
0.161053 0.00584001 0.0
0.052264 0.00101297 0.0
0 0 0.0
0.0966424 0.00329878 0.0
0.206925 -0.00747836 0.0
0.18701 -0.00815546 0.0
0.233449 -0.00455389 0.0
0.222199 -0.00633623 0.0
0.239499 -0.00283471 0.0
0.242413 -0.000786891 0.0
0.240424 0.00104441 0.0
0.233161 0.00291087 0.0
0.222065 0.0044598 0.0
0.185729 0.00681403 0.0
0.161326 0.00739936 0.0
0.205893 0.00604917 0.0
0 0 0.0
0.104798 -0.00470295 0.0
0.0585889 -0.00145248 0.0
0.163637 -0.00952473 0.0
0.137951 -0.00797051 0.0
0.133228 0.00623787 0.0
0 0 0.0
0.0543403 0.00115758 0.0
0.0995806 0.00388437 0.0
0.20587 -0.00861365 0.0
0.186338 -0.00993185 0.0
0.231946 -0.00516981 0.0
0.220501 -0.00744602 0.0
0.237841 -0.00318684 0.0
0.240345 -0.000881761 0.0
0.238941 0.00123467 0.0
0.161618 0.00834301 0.0
0.204679 0.00707375 0.0
0.231212 0.00350741 0.0
0.220695 0.00519832 0.0
0.184992 0.00811854 0.0
0 0 0.0
0.0611377 -0.00150721 0.0
0.108448 -0.00498215 0.0
0.164622 -0.010618 0.0
0.14076 -0.00858073 0.0
0.102645 0.00427471 0.0
0.135493 0.00715753 0.0
0 0 0.0
0.0568135 0.00126756 0.0
0.204477 -0.00996742 0.0
0.185866 -0.0112477 0.0
0.22978 -0.00600202 0.0
0.218518 -0.00858607 0.0
0.236001 -0.00355729 0.0
0.237932 -0.000991626 0.0
0.235578 0.00162277 0.0
0.162339 0.00938361 0.0
0.22893 0.00413459 0.0
0.203366 0.00809769 0.0
0.218008 0.00647594 0.0
0.184067 0.00962888 0.0
0 0 0.0
0.112751 -0.00503924 0.0
0.0640868 -0.00147283 0.0
0.166389 -0.0115535 0.0
0.144033 -0.0088891 0.0
0.105684 0.00446307 0.0
0.138001 0.00768637 0.0
0 0 0.0
0.0591383 0.00135566 0.0
0.185625 -0.0123556 0.0
0.203005 -0.011235 0.0
0.227262 -0.00685438 0.0
0.233283 -0.00406072 0.0
0.21631 -0.00970085 0.0
0.235119 -0.00111217 0.0
0.232788 0.0018753 0.0
0.226287 0.00476235 0.0
0.232486 -0.00283062 0.0
0.163397 0.0100916 0.0
0.215659 0.0074023 0.0
0.201169 0.00951509 0.0
0.18363 0.0103755 0.0
0 0 0.0
0.116375 -0.00490371 0.0
0.0668956 -0.00146025 0.0
0.167921 -0.0118613 0.0
0.147638 -0.00887656 0.0
0.109195 0.00445027 0.0
0.140439 0.00790496 0.0
0 0 0.0
0.0615617 0.00130535 0.0
0.18569 -0.0131133 0.0
0.201556 -0.0123026 0.0
0.224449 -0.00768002 0.0
0.213948 -0.0106828 0.0
0.22871 -0.00478706 0.0
0.232127 0.000426036 0.0
0.227706 0.00365953 0.0
0.21929 0.00668964 0.0
0.230217 -0.00132577 0.0
0.164901 0.0104038 0.0
0.207102 0.00924291 0.0
0.195731 0.010643 0.0
0.183233 0.011226 0.0
0 0 0.0
0.120286 -0.00459741 0.0
0.0694965 -0.00135629 0.0
0.170226 -0.0118505 0.0
0.151459 -0.00852788 0.0
0.144102 0.00777584 0.0
0.112765 0.00422468 0.0
0 0 0.0
0.0641573 0.00119403 0.0
0.186146 -0.0134205 0.0
0.200264 -0.013037 0.0
0.225181 -0.00522138 0.0
0.211549 -0.0114135 0.0
0.221394 -0.00839768 0.0
0.227768 0.00219923 0.0
0.221447 0.00559136 0.0
0.211473 0.00856167 0.0
0.226518 -0.00150076 0.0
0.166811 0.0102342 0.0
0.19842 0.0106707 0.0
0.183323 0.0113755 0.0
0 0 0.0
0.0716664 -0.0012306 0.0
0.124009 -0.00415629 0.0
0.154778 -0.00798339 0.0
0.186995 -0.0132101 0.0
0.172868 -0.0114106 0.0
0.147487 0.0072717 0.0
0.116187 0.00383296 0.0
0.0662189 0.00109767 0.0
0 0 0.0
0.209615 -0.0117478 0.0
0.199248 -0.0133283 0.0
0.222314 -0.00550318 0.0
0.218229 -0.00891967 0.0
0.208875 0.00884057 0.0
0.224135 0.00228639 0.0
0.218138 0.00585348 0.0
0.222621 -0.00170763 0.0
0.183789 0.0109479 0.0
0.169501 0.00939064 0.0
0.196676 0.0106926 0.0
0 0 0.0
0.0738045 -0.00103706 0.0
0.127674 -0.00360113 0.0
0.158525 -0.00714179 0.0
0.187906 -0.0127359 0.0
0.176362 -0.0103772 0.0
0.150834 0.00643944 0.0
0.119613 0.00320939 0.0
0.068087 0.000911691 0.0
0 0 0.0
0.154072 0.00532987 0.0
0.20783 -0.0117878 0.0
0.19837 -0.0129626 0.0
0.21378 -0.00918039 0.0
0.219406 -0.00570625 0.0
0.205589 0.00848124 0.0
0.214783 0.0058 0.0
0.220356 0.00219525 0.0
0.218658 -0.00194569 0.0
0.184641 0.00996475 0.0
0.172018 0.00819603 0.0
0.195734 0.0100418 0.0
0 0 0.0
0.0756034 -0.000870546 0.0
0.130616 -0.00307044 0.0
0.162055 -0.00623329 0.0
0.189333 -0.0117482 0.0
0.179325 -0.00925126 0.0
0.0694748 0.000697425 0.0
0.122274 0.00253952 0.0
0 0 0.0
0.156464 0.00430227 0.0
0.205947 -0.0114532 0.0
0.198148 -0.0121709 0.0
0.210895 -0.0090055 0.0
0.215731 -0.0058377 0.0
0.203841 0.00780515 0.0
0.211537 0.00536484 0.0
0.214824 -0.00225128 0.0
0.214831 0.00169041 0.0
0.185421 0.00890864 0.0
0.174453 0.00669702 0.0
0.195095 0.00884866 0.0
0 0 0.0
0.0771597 -0.000739529 0.0
0.133083 -0.00260739 0.0
0.165616 -0.00518352 0.0
0.191314 -0.0101692 0.0
0.198181 -0.0110733 0.0
0.182124 -0.0080499 0.0
0.0706142 0.000476637 0.0
0.124382 0.00185056 0.0
0 0 0.0
0.158868 0.00305501 0.0
0.203896 -0.0104557 0.0
0.208779 -0.00869806 0.0
0.212298 -0.00585241 0.0
0.212128 -0.00250765 0.0
0.202294 0.00679324 0.0
0.208538 0.00454802 0.0
0.211342 0.00105185 0.0
0.176745 0.00501814 0.0
0.186591 0.00718973 0.0
0.194771 0.00722666 0.0
0 0 0.0
0.0784591 -0.000674836 0.0
0.135214 -0.00222781 0.0
0.168332 -0.00442258 0.0
0.192593 -0.00920489 0.0
0.198467 -0.00987386 0.0
0.184698 -0.0069212 0.0
0.0713661 0.000270464 0.0
0.125958 0.00117944 0.0
0 0 0.0
0.178247 0.00368422 0.0
0.126948 0.00058763 0.0
0.160923 0.00171053 0.0
0.202863 -0.00954123 0.0
0.206953 -0.00827238 0.0
0.208002 -0.00575705 0.0
0.209684 -0.00279744 0.0
0.208857 0.00043223 0.0
0.200736 0.0052603 0.0
0.204926 0.00285943 0.0
0.188023 0.00480245 0.0
0.194679 0.00562618 0.0
0.202222 -0.00877354 0.0
0 0 0.0
0.0795848 -0.000607659 0.0
0.170623 -0.00385686 0.0
0.13701 -0.0019875 0.0
0.198914 -0.00875783 0.0
0.194516 -0.00774632 0.0
0.18695 -0.0060069 0.0
0.071832 9.42622e-05 0.0
0 0 0.0
0.188847 0.00336615 0.0
0.179829 0.00209672 0.0
0.162152 0.000673964 0.0
0.0718322 -1.40372e-05 0.0
0.127501 6.1855e-05 0.0
0.205078 -0.00775329 0.0
0.206157 -0.0057216 0.0
0.206846 -0.00324529 0.0
0.205062 -0.00363726 0.0
0.206679 -0.00028629 0.0
0.199518 0.00352216 0.0
0.202884 0.00144108 0.0
0.19465 0.00396732 0.0
0.201775 -0.00812627 0.0
0.0805461 -0.000598097 0.0
0 0 0.0
0.172281 -0.00355173 0.0
0.13858 -0.00188106 0.0
0.199421 -0.0078788 0.0
0.195627 -0.0070929 0.0
0.188902 -0.00538011 0.0
0 0 0.0
0.189645 0.00159361 0.0
0.181059 0.000451104 0.0
0.162701 -6.3841e-05 0.0
0.0717509 -0.000138484 0.0
0.127594 -0.000353889 0.0
0.203135 -0.00717091 0.0
0.204594 -0.00572875 0.0
0.203572 -0.00406556 0.0
0.203362 -0.00174025 0.0
0.198558 0.00173981 0.0
0.201209 -2.85298e-05 0.0
0.194675 0.00151339 0.0
0.201481 -0.00759343 0.0
0 0 0.0
0.0816202 -0.000610312 0.0
0.173999 -0.00343432 0.0
0.13991 -0.00191044 0.0
0.190549 -0.00508133 0.0
0.199984 -0.00734086 0.0
0.197201 -0.00640992 0.0
0 0 0.0
0 0 0.0
0.190208 3.92458e-05 0.0
0.181684 -0.000692329 0.0
0.163012 -0.000791512 0.0
0.127356 -0.000686611 0.0
0.0714317 -0.000247357 0.0
0.20221 -0.00701199 0.0
0.202997 -0.00587529 0.0
0.200144 -0.00115692 0.0
0.201978 -0.00469635 0.0
0.201668 -0.00279217 0.0
0.197819 4.16466e-05 0.0
0.194656 -0.000160874 0.0
0.201656 -0.00707913 0.0
0.201321 -0.00738416 0.0
0.0827738 -0.000673238 0.0
0.141361 -0.00204719 0.0
0.175605 -0.00356388 0.0
0.191778 -0.0050908 0.0
0.200527 -0.00717514 0.0
0.198065 -0.00633164 0.0
0 0 0.0
0 0 0.0
0.181795 -0.00143394 0.0
0.190468 -0.00155533 0.0
0.126876 -0.000921354 0.0
0.162836 -0.00143999 0.0
0.0709319 -0.000322922 0.0
0.201373 -0.00636858 0.0
0.200756 -0.00542377 0.0
0.194539 -0.00161385 0.0
0.199244 -0.00223129 0.0
0.200599 -0.00360007 0.0
0.196979 -0.00197942 0.0
0.201257 -0.00730589 0.0
0.201324 -0.00765856 0.0
0.201041 -0.00741277 0.0
0.0840555 -0.000808858 0.0
0.142955 -0.00233361 0.0
0.177325 -0.00403687 0.0
0.193118 -0.0053664 0.0
0.19932 -0.00663614 0.0
0 0 0.0
0 0 0.0
0.181642 -0.00234284 0.0
0.190424 -0.00258975 0.0
0.126121 -0.00115891 0.0
0.162345 -0.00188445 0.0
0.0703128 -0.000380605 0.0
0.199721 -0.00439696 0.0
0.199804 -0.00622577 0.0
0.200574 -0.00696878 0.0
0.194307 -0.00283742 0.0
0.198335 -0.0034843 0.0
0.196442 -0.00327845 0.0
0.190128 -0.00344802 0.0
0.20074 -0.00815476 0.0
0 0 0.0
0.201333 -0.00830383 0.0
0.200248 -0.0072956 0.0
0.201508 -0.00800412 0.0
0.0854826 -0.000967757 0.0
0.17873 -0.00458308 0.0
0.14493 -0.00285453 0.0
0.194658 -0.00619712 0.0
0 0 0.0
0 0 0.0
0 0 0.0
0 0 0.0
0 0 0.0
0.0696496 -0.000425049 0.0
0.161648 -0.00225969 0.0
0.181216 -0.00295575 0.0
0.125346 -0.00132048 0.0
0.198774 -0.00540014 0.0
0.199022 -0.00713061 0.0
0.199952 -0.00775733 0.0
0.195966 -0.00421237 0.0
0.193917 -0.00388206 0.0
0.197236 -0.00506369 0.0
0.193494 -0.00465955 0.0
0.189727 -0.00400027 0.0
0.200417 -0.00910963 0.0
0.201363 -0.00922199 0.0
0 0 0.0
-0.000273284 0.000178508 0.0
0 0 0.0
-0.000827709 0.00887932 0.0
0.201934 -0.00898305 0.0
0.200891 -0.00802534 0.0
0.087381 -0.00120939 0.0
0.180442 -0.00543478 0.0
0.14705 -0.00351607 0.0
0.195976 -0.00726978 0.0
0 0 0.0
0 0 0.0
0 0 0.0
-0.000730714 0.0063806 0.0
-0.000478128 0.00127045 0.0
-0.00118655 0.00120629 0.0
0 0 0.0
0.0688348 -0.000471816 0.0
0.160867 -0.00252627 0.0
0.180526 -0.00347562 0.0
0.124185 -0.00148896 0.0
0.197971 -0.00641928 0.0
0.198311 -0.00813833 0.0
0.199392 -0.00872285 0.0
0.195464 -0.00507037 0.0
0.196663 -0.00591755 0.0
0.192942 -0.00535787 0.0
0.18884 -0.00482072 0.0
0.20009 -0.0102922 0.0
0.201045 -0.0103617 0.0
0.201869 -0.0102326 0.0
0 0 0.0
-0.00128182 0.000493336 0.0
0 0 0.0
0 0 0.0
-0.00272291 0.0160745 0.0
-0.00306836 0.0125989 0.0
0.202277 -0.00996492 0.0
0.201674 -0.00934592 0.0
0.149289 -0.00429217 0.0
0.0895383 -0.00154295 0.0
0.182368 -0.00660447 0.0
0.197254 -0.00869221 0.0
0 0 0.0
-0.00200332 0.00520429 0.0
-0.00262314 0.00868504 0.0
-0.00224524 0.00333786 0.0
-0.0033806 0.00225323 0.0
0 0 0.0
0.0679631 -0.000513686 0.0
0.159797 -0.00281212 0.0
0.179618 -0.00392864 0.0
0.12301 -0.00162963 0.0
0.197206 -0.00745163 0.0
0.197606 -0.00924215 0.0
0.198823 -0.0098719 0.0
0.194544 -0.00635934 0.0
0.196063 -0.00673193 0.0
0.192159 -0.00613354 0.0
0.178611 -0.00436752 0.0
0.187971 -0.00542497 0.0
0.199755 -0.0114073 0.0
0.201233 -0.0114888 0.0
0.202437 -0.0114915 0.0
0 0 0.0
-0.00347386 0.000841135 0.0
0 0 0.0
0 0 0.0
0 0 0.0
0 0 0.0
-0.00614652 0.0125841 0.0
-0.000700085 0.0129148 0.0
-0.00260198 0.0188751 0.0
-0.00607583 0.0223878 0.0
-0.00570682 0.0175747 0.0
0 0 0.0
-4.7144e-05 0.0163662 0.0
0.202545 -0.0115648 0.0
0.198362 -0.0101381 0.0
0 0 0.0
0.0925809 -0.00205775 0.0
0.152324 -0.00538261 0.0
0.18495 -0.00855247 0.0
0 0 0.0
0 0 0.0
-0.00503787 0.00816154 0.0
-0.00544221 0.00524192 0.0
-0.00664641 0.0030492 0.0
0 0 0.0
0.0669582 -0.000554221 0.0
0.158384 -0.00311996 0.0
0.121688 -0.00175916 0.0
0.177596 -0.00467979 0.0
0.196427 -0.00852126 0.0
0.19703 -0.01014 0.0
0.198187 -0.0112071 0.0
0.193863 -0.007099 0.0
0.195264 -0.0077386 0.0
0.191234 -0.0068659 0.0
0.187147 -0.00584407 0.0
0.201846 -0.012675 0.0
0.199325 -0.0126737 0.0
0.200868 -0.01389 0.0
0.202539 -0.0140688 0.0
0.203123 -0.013927 0.0
0 0 0.0
-0.00544206 0.000930055 0.0