# vtk DataFile Version 3.0
Mesh NS-CD Problem
ASCII
DATASET UNSTRUCTURED_GRID
POINTS 10839 float
-2 0.3 0.0
-2 0.4 0.0
-2 0.35 0.0
-2 0.45 0.0
-2 0.5 0.0
-2 0.55 0.0
-2 0 0.0
-2 0.05 0.0
-2 0.85 0.0
-2 0.9 0.0
-2 0.1 0.0
-2 0.15 0.0
-2 0.25 0.0
-2 0.2 0.0
-1.96653 0.266667 0.0
-1.96524 0.415385 0.0
-1.96485 0.315 0.0
-1.96348 0.363636 0.0
-1.96414 0.464286 0.0
-2 0.6 0.0
-1.96538 0.584615 0.0
-1.96538 0.538462 0.0
-1.94979 0 0.0
-1.96653 0.0666666 0.0
-1.93306 0.0333333 0.0
-2 0.8 0.0
-2 0.75 0.0
-2 0.7 0.0
-2 0.65 0.0
-1.96249 0.7375 0.0
-1.96666 0.833333 0.0
-2 1 0.0
-2 0.95 0.0
-1.96249 0.8875 0.0
-1.96666 0.933333 0.0
-1.96234 0.1125 0.0
-1.96653 0.166667 0.0
-1.93724 0.225 0.0
-1.92971 0.28 0.0
-1.93048 0.380769 0.0
-1.93048 0.423077 0.0
-1.89958 0.3375 0.0
-1.9292 0.484203 0.0
-1.92117 0.530907 0.0
-1.96363 0.636364 0.0
-1.93076 0.576923 0.0
-1.89958 0 0.0
-1.88703 0.0375 0.0
-1.90963 0.08 0.0
-1.86611 0.0666666 0.0
-1.93749 0.775 0.0
-1.93635 0.672727 0.0
-1.92999 0.72 0.0
-1.93332 0.866667 0.0
-1.92856 0.821429 0.0
-1.94999 1 0.0
-1.92499 0.9625 0.0
-1.92499 0.925 0.0
-1.89998 0.9 0.0
-1.89958 0.125 0.0
-1.92827 0.178571 0.0
-1.89958 0.233333 0.0
-1.89045 0.290909 0.0
-1.86096 0.311538 0.0
-1.89241 0.392857 0.0
-1.89334 0.448489 0.0
-1.85655 0.357143 0.0
-1.89614 0.653846 0.0
-1.89427 0.504121 0.0
-1.8952 0.559753 0.0
-1.89614 0.615385 0.0
-1.84937 0 0.0
-1.83264 0.0333333 0.0
-1.85655 0.107143 0.0
-1.81172 0.075 0.0
-1.89998 0.766667 0.0
-1.89089 0.709091 0.0
-1.87498 0.85 0.0
-1.85998 0.79 0.0
-1.88748 0.8125 0.0
-1.89998 1 0.0
-1.88748 0.9625 0.0
-1.86664 0.933333 0.0
-1.85712 0.892857 0.0
-1.87448 0.15 0.0
-1.86611 0.194444 0.0
-1.83264 0.133333 0.0
-1.83264 0.2625 0.0
-1.82068 0.321429 0.0
-1.85664 0.404762 0.0
-1.85674 0.452381 0.0
-1.85683 0.5 0.0
-1.81184 0.375 0.0
-1.85712 0.642857 0.0
-1.85693 0.547619 0.0
-1.85702 0.595238 0.0
-1.79917 0 0.0
-1.78482 0.0357143 0.0
-1.79917 0.116667 0.0
-1.76569 0.0666666 0.0
-1.85452 0.745455 0.0
-1.82689 0.692308 0.0
-1.81815 0.781818 0.0
-1.82497 0.825 0.0
-1.84997 1 0.0
-1.8333 0.958333 0.0
-1.81247 0.8875 0.0
-1.81247 0.925 0.0
-1.81742 0.218182 0.0
-1.82427 0.175 0.0
-1.77634 0.145455 0.0
-1.79144 0.242308 0.0
-1.78482 0.285714 0.0
-1.77469 0.332653 0.0
-1.81215 0.529762 0.0
-1.81194 0.422619 0.0
-1.81203 0.470238 0.0
-1.76714 0.392857 0.0
-1.81234 0.625 0.0
-1.79732 0.571429 0.0
-1.74896 0 0.0
-1.73222 0.0333333 0.0
-1.75398 0.105 0.0
-1.71883 0.07 0.0
-1.79227 0.730769 0.0
-1.78007 0.679121 0.0
-1.75765 0.769231 0.0
-1.78178 0.818182 0.0
-1.78996 0.86 0.0
-1.79996 1 0.0
-1.78568 0.964286 0.0
-1.76663 0.922222 0.0
-1.76569 0.1875 0.0
-1.73222 0.15 0.0
-1.74896 0.25 0.0
-1.73714 0.304762 0.0
-1.76743 0.537202 0.0
-1.72869 0.343878 0.0
-1.76732 0.485119 0.0
-1.76723 0.440476 0.0
-1.72243 0.410714 0.0
-1.76757 0.607143 0.0
-1.69875 0 0.0
-1.68369 0.035 0.0
-1.69875 0.1125 0.0
-1.66528 0.075 0.0
-1.74341 0.708974 0.0
-1.73324 0.665934 0.0
-1.70441 0.74478 0.0
-1.71423 0.785714 0.0
-1.72303 0.826923 0.0
-1.74541 0.854545 0.0
-1.74541 0.890909 0.0
-1.74996 1 0.0
-1.73745 0.9625 0.0
-1.71359 0.927273 0.0
-1.68716 0.153846 0.0
-1.7131 0.214286 0.0
-1.70725 0.275 0.0
-1.69712 0.321939 0.0
-1.72279 0.589286 0.0
-1.72261 0.5 0.0
-1.7227 0.544643 0.0
-1.6827 0.355102 0.0
-1.67773 0.428571 0.0
-1.70763 0.464286 0.0
-1.70369 0.62449 0.0
-1.64854 0 0.0
-1.63181 0.0375 0.0
-1.64137 0.142857 0.0
-1.61764 0.0769231 0.0
-1.69458 0.703846 0.0
-1.67471 0.657437 0.0
-1.66143 0.727637 0.0
-1.67125 0.768571 0.0
-1.67851 0.821429 0.0
-1.68841 0.861538 0.0
-1.70904 0.890909 0.0
-1.69995 1 0.0
-1.68176 0.963636 0.0
-1.67267 0.927273 0.0
-1.65427 0.187143 0.0
-1.66718 0.231429 0.0
-1.66554 0.3 0.0
-1.67802 0.571429 0.0
-1.67792 0.523809 0.0
-1.6367 0.366327 0.0
-1.63682 0.423469 0.0
-1.62568 0.502976 0.0
-1.6629 0.470238 0.0
-1.65254 0.618367 0.0
-1.6059 0.307143 0.0
-1.59833 0 0.0
-1.58288 0.0384615 0.0
-1.60563 0.169643 0.0
-1.58179 0.112271 0.0
-1.56964 0.0714286 0.0
-1.64574 0.690385 0.0
-1.62827 0.751429 0.0
-1.63371 0.791071 0.0
-1.64279 0.857143 0.0
-1.65378 0.896154 0.0
-1.64994 1 0.0
-1.6363 0.963636 0.0
-1.61916 0.930769 0.0
-1.61345 0.209107 0.0
-1.62126 0.248571 0.0
-1.56989 0.196429 0.0
-1.63324 0.553571 0.0
-1.58846 0.535714 0.0
-1.59408 0.361905 0.0
-1.59161 0.402211 0.0
-1.58832 0.464286 0.0
-1.61504 0.598581 0.0
-1.59683 0.64359 0.0
-1.57899 0.274107 0.0
-1.56176 0.322381 0.0
-1.54812 0 0.0
-1.53378 0.0357143 0.0
-1.54593 0.147619 0.0
-1.53385 0.0732143 0.0
-1.53393 0.110714 0.0
-1.58522 0.704286 0.0
-1.58709 0.745 0.0
-1.58896 0.785714 0.0
-1.60695 0.830357 0.0
-1.60707 0.892857 0.0
-1.59993 1 0.0
-1.58454 0.965385 0.0
-1.57135 0.928571 0.0
-1.55209 0.241071 0.0
-1.5291 0.198214 0.0
-1.56936 0.570918 0.0
-1.54369 0.517857 0.0
-1.5464 0.380952 0.0
-1.54564 0.427721 0.0
-1.54488 0.47449 0.0
-1.55026 0.606122 0.0
-1.54222 0.677143 0.0
-1.52943 0.282857 0.0
-1.52143 0.33619 0.0
-1.49792 0 0.0
-1.49802 0.05 0.0
-1.49822 0.15 0.0
-1.49312 0.1 0.0
-1.5423 0.717143 0.0
-1.54419 0.767857 0.0
-1.54727 0.819048 0.0
-1.57122 0.861905 0.0
-1.53553 0.914286 0.0
-1.54992 1 0.0
-1.53563 0.964286 0.0
-1.49842 0.25 0.0
-1.48831 0.2 0.0
-1.5214 0.558929 0.0
-1.49891 0.5 0.0
-1.49871 0.4 0.0
-1.47631 0.45 0.0
-1.49911 0.6 0.0
-1.49921 0.65 0.0
-1.49931 0.7 0.0
-1.48111 0.35 0.0
-1.48351 0.3 0.0
-1.44771 0 0.0
-1.44782 0.05 0.0
-1.44804 0.15 0.0
-1.44793 0.1 0.0
-1.49941 0.75 0.0
-1.49951 0.8 0.0
-1.49981 0.95 0.0
-1.49961 0.85 0.0
-1.49971 0.9 0.0
-1.49991 1 0.0
-1.44826 0.25 0.0
-1.43815 0.2 0.0
-1.47151 0.55 0.0
-1.44881 0.5 0.0
-1.44859 0.4 0.0
-1.42619 0.45 0.0
-1.44913 0.65 0.0
-1.44902 0.6 0.0
-1.44935 0.75 0.0
-1.44924 0.7 0.0
-1.43972 0.35 0.0
-1.43336 0.3 0.0
-1.3975 0 0.0
-1.39762 0.05 0.0
-1.39786 0.15 0.0
-1.39274 0.1 0.0
-1.44957 0.85 0.0
-1.44946 0.8 0.0
-1.4523 0.95 0.0
-1.44968 0.9 0.0
-1.4499 1 0.0
-1.3981 0.25 0.0
-1.38798 0.2 0.0
-1.42141 0.55 0.0
-1.3987 0.5 0.0
-1.39834 0.35 0.0
-1.37845 0.4 0.0
-1.37607 0.45 0.0
-1.40784 0.65 0.0
-1.39894 0.6 0.0
-1.41185 0.75 0.0
-1.39918 0.7 0.0
-1.38322 0.3 0.0
-1.34729 0 0.0
-1.34492 0.05 0.0
-1.34018 0.15 0.0
-1.34255 0.1 0.0
-1.40707 0.85 0.0
-1.39941 0.8 0.0
-1.39977 0.95 0.0
-1.39965 0.9 0.0
-1.39989 1 0.0
-1.33781 0.2 0.0
-1.33544 0.25 0.0
-1.37131 0.55 0.0
-1.34859 0.5 0.0
-1.33833 0.4 0.0
-1.3307 0.35 0.0
-1.32595 0.45 0.0
-1.34885 0.6 0.0
-1.36655 0.65 0.0
-1.36179 0.75 0.0
-1.34911 0.7 0.0
-1.33307 0.3 0.0
-1.29708 0 0.0
-1.29722 0.05 0.0
-1.2975 0.15 0.0
-1.29236 0.1 0.0
-1.35703 0.85 0.0
-1.34937 0.8 0.0
-1.34988 1 0.0
-1.34962 0.9 0.0
-1.35226 0.95 0.0
-1.28528 0.25 0.0
-1.28764 0.2 0.0
-1.28931 0.35 0.0
-1.32121 0.55 0.0
-1.29848 0.5 0.0
-1.28709 0.45 0.0
-1.2982 0.4 0.0
-1.29876 0.6 0.0
-1.31647 0.65 0.0
-1.29918 0.75 0.0
-1.29904 0.7 0.0
-1.28292 0.3 0.0
-1.24687 0 0.0
-1.24702 0.05 0.0
-1.24717 0.1 0.0
-1.24732 0.15 0.0
-1.29946 0.85 0.0
-1.29932 0.8 0.0
-1.29987 1 0.0
-1.29974 0.95 0.0
-1.30462 0.9 0.0
-1.24762 0.25 0.0
-1.23747 0.2 0.0
-1.24792 0.35 0.0
-1.22807 0.4 0.0
-1.27111 0.55 0.0
-1.24837 0.5 0.0
-1.24822 0.45 0.0
-1.24867 0.6 0.0
-1.26639 0.65 0.0
-1.26167 0.75 0.0
-1.24897 0.7 0.0
-1.23277 0.3 0.0
-1.19667 0 0.0
-1.19683 0.05 0.0
-1.18964 0.15 0.0
-1.19198 0.1 0.0
-1.25695 0.85 0.0
-1.24927 0.8 0.0
-1.25223 0.95 0.0
-1.24987 1 0.0
-1.24957 0.9 0.0
-1.1873 0.2 0.0
-1.18496 0.25 0.0
-1.18028 0.35 0.0
-1.17794 0.4 0.0
-1.1981 0.45 0.0
-1.19842 0.55 0.0
-1.19826 0.5 0.0
-1.19858 0.6 0.0
-1.19874 0.65 0.0
-1.19906 0.75 0.0
-1.1989 0.7 0.0
-1.18262 0.3 0.0
-1.14646 0 0.0
-1.14663 0.05 0.0
-1.1418 0.1 0.0
-1.13713 0.2 0.0
-1.14697 0.15 0.0
-1.20691 0.85 0.0
-1.20926 0.8 0.0
-1.20221 0.95 0.0
-1.19986 1 0.0
-1.20456 0.9 0.0
-1.13997 0.3 0.0
-1.14731 0.25 0.0
-1.13781 0.4 0.0
-1.13014 0.35 0.0
-1.12548 0.45 0.0
-1.14815 0.5 0.0
-1.15962 0.55 0.0
-1.14849 0.6 0.0
-1.15745 0.65 0.0
-1.16155 0.75 0.0
-1.14917 0.8 0.0
-1.14883 0.7 0.0
-1.09625 0 0.0
-1.09661 0.1 0.0
-1.09393 0.05 0.0
-1.09697 0.2 0.0
-1.08929 0.15 0.0
-1.15687 0.85 0.0
-1.14985 1 0.0
-1.15219 0.95 0.0
-1.14951 0.9 0.0
-1.09733 0.3 0.0
-1.08465 0.25 0.0
-1.09769 0.4 0.0
-1.08 0.35 0.0
-1.08661 0.45 0.0
-1.09804 0.5 0.0
-1.12082 0.55 0.0
-1.10916 0.8 0.0
-1.10629 0.7 0.0
-1.0984 0.6 0.0
-1.11616 0.65 0.0
-1.11149 0.75 0.0
-1.04604 0 0.0
-1.04623 0.05 0.0
-1.04642 0.1 0.0
-1.0468 0.2 0.0
-1.03911 0.15 0.0
-1.09948 0.9 0.0
-1.0993 0.85 0.0
-1.09984 1 0.0
-1.09966 0.95 0.0
-1.04718 0.3 0.0
-1.03449 0.25 0.0
-1.04756 0.4 0.0
-1.02986 0.35 0.0
-1.04775 0.45 0.0
-1.04794 0.5 0.0
-1.04813 0.55 0.0
-1.05911 0.8 0.0
-1.04831 0.6 0.0
-1.06376 0.7 0.0
-1.0485 0.65 0.0
-1.04888 0.75 0.0
-0.995833 0 0.0
-0.991231 0.1 0.0
-0.996033 0.05 0.0
-0.986629 0.2 0.0
-0.98893 0.15 0.0
-1.05447 0.9 0.0
-1.04926 0.85 0.0
-1.04983 1 0.0
-1.04964 0.95 0.0
-0.984328 0.25 0.0
-0.99703 0.3 0.0
-0.997429 0.4 0.0
-0.997628 0.45 0.0
-0.979726 0.35 0.0
-0.997827 0.5 0.0
-0.998027 0.55 0.0
-0.998226 0.6 0.0
-0.961416 0.475 0.0
-1.00907 0.8 0.0
-0.998426 0.65 0.0
-0.998625 0.7 0.0
-1.01138 0.75 0.0
-0.945625 0 0.0
-0.946044 0.1 0.0
-0.943334 0.05 0.0
-0.946463 0.2 0.0
-0.938752 0.15 0.0
-1.00444 0.9 0.0
-1.00675 0.85 0.0
-0.999821 1 0.0
-1.00213 0.95 0.0
-0.93417 0.25 0.0
-0.946881 0.3 0.0
-0.9473 0.4 0.0
-0.929588 0.35 0.0
-0.925005 0.45 0.0
-0.960371 0.525 0.0
-0.959325 0.575 0.0
-0.958279 0.625 0.0
-0.922714 0.5 0.0
-0.959017 0.8 0.0
-0.957233 0.675 0.0
-0.952999 0.7125 0.0
-0.948766 0.75 0.0
-0.895417 0 0.0
-0.895855 0.1 0.0
-0.893136 0.05 0.0
-0.896294 0.2 0.0
-0.888573 0.15 0.0
-0.949184 0.85 0.0
-0.954415 0.9 0.0
-0.949812 1 0.0
-0.949603 0.95 0.0
-0.884011 0.25 0.0
-0.896733 0.3 0.0
-0.874887 0.45 0.0
-0.879449 0.35 0.0
-0.897171 0.4 0.0
-0.920423 0.55 0.0
-0.918132 0.6 0.0
-0.915841 0.65 0.0
-0.872606 0.5 0.0
-0.908968 0.8 0.0
-0.91355 0.7 0.0
-0.898707 0.75 0.0
-0.845208 0 0.0
-0.845438 0.05 0.0
-0.845667 0.1 0.0
-0.845896 0.15 0.0
-0.833853 0.25 0.0
-0.846126 0.2 0.0
-0.899146 0.85 0.0
-0.904386 0.9 0.0
-0.899584 0.95 0.0
-0.899804 1 0.0
-0.838062 0.35 0.0
[...]
POINT_DATA 10839
VECTORS Velocity float
0.21 0 0.0
0.24 0 0.0
0.2275 0 0.0
0.2475 0 0.0
0.25 0 0.0
0.2475 0 0.0
0 0 0.0
0.0475 0 0.0
0.1275 0 0.0
0.09 0 0.0
0.09 0 0.0
0.1275 0 0.0
0.1875 0 0.0
0.16 0 0.0
0.195557 -2.35864e-05 0.0
0.242841 -3.22234e-05 0.0
0.215776 -2.80941e-05 0.0
0.231406 -3.1686e-05 0.0
0.248725 -3.4315e-05 0.0
0.24 0 0.0
0.24284 -3.215e-05 0.0
0.24852 -3.30451e-05 0.0
0 0 0.0
0.0622239 -4.08468e-06 0.0
0.0322268 -2.69865e-06 0.0
0.16 0 0.0
0.1875 0 0.0
0.21 0 0.0
0.2275 0 0.0
0.193592 -2.64746e-05 0.0
0.138887 -1.46665e-05 0.0
0 0 0.0
0.0475 0 0.0
0.0998415 -1.01691e-05 0.0
0.0622206 -4.13028e-06 0.0
0.0998461 -1.06277e-05 0.0
0.138891 -1.47994e-05 0.0
0.17438 -3.7172e-05 0.0
0.201605 -5.09769e-05 0.0
0.235787 -6.23067e-05 0.0
0.244085 -6.52116e-05 0.0
0.223602 -8.35572e-05 0.0
0.249751 -6.81436e-05 0.0
0.249044 -7.59464e-05 0.0
0.231404 -3.22014e-05 0.0
0.244081 -6.4435e-05 0.0
0 0 0.0
0.0361077 -5.23147e-06 0.0
0.0736124 -1.46474e-05 0.0
0.0622485 -1.60615e-05 0.0
0.17437 -3.6619e-05 0.0
0.220162 -5.09731e-05 0.0
0.201594 -5.10491e-05 0.0
0.115549 -2.19053e-05 0.0
0.146676 -3.39973e-05 0.0
0 0 0.0
0.0360876 -3.51914e-06 0.0
0.0693663 -1.14398e-05 0.0
0.0899838 -2.27518e-05 0.0
0.109391 -3.08148e-05 0.0
0.146691 -3.33448e-05 0.0
0.178902 -6.24127e-05 0.0
0.206293 -8.17072e-05 0.0
0.2145 -0.000110234 0.0
0.238527 -9.77718e-05 0.0
0.24735 -0.000101835 0.0
0.229607 -0.000124544 0.0
0.226323 -8.78047e-05 0.0
0.249983 -0.000102343 0.0
0.246426 -9.95543e-05 0.0
0.23668 -9.37023e-05 0.0
0 0 0.0
0.0322499 -5.92113e-06 0.0
0.095696 -3.50238e-05 0.0
0.0694282 -2.63947e-05 0.0
0.178876 -6.14537e-05 0.0
0.206269 -8.23189e-05 0.0
0.127477 -4.732e-05 0.0
0.165873 -7.78322e-05 0.0
0.152326 -5.56543e-05 0.0
0 0 0.0
0.0360799 -5.06648e-06 0.0
0.0621963 -1.58887e-05 0.0
0.0956306 -3.56777e-05 0.0
0.127524 -4.77837e-05 0.0
0.156661 -6.95248e-05 0.0
0.1156 -5.49108e-05 0.0
0.193626 -0.000114954 0.0
0.218141 -0.000145632 0.0
0.24094 -0.000132745 0.0
0.247737 -0.000137695 0.0
0.25 -0.000139206 0.0
0.234398 -0.000168721 0.0
0.229577 -0.000122813 0.0
0.247727 -0.000137389 0.0
0.24092 -0.000132506 0.0
0 0 0.0
0.0344861 -8.21388e-06 0.0
0.10312 -5.39874e-05 0.0
0.0623014 -2.6756e-05 0.0
0.189727 -9.75924e-05 0.0
0.212989 -0.000136561 0.0
0.170534 -0.000105743 0.0
0.14433 -7.83907e-05 0.0
0 0 0.0
0.0398988 -8.74109e-06 0.0
0.0997873 -4.90273e-05 0.0
0.0693223 -2.5954e-05 0.0
0.170624 -0.000105882 0.0
0.144421 -8.00925e-05 0.0
0.124376 -8.12892e-05 0.0
0.183649 -0.00013404 0.0
0.204131 -0.000160629 0.0
0.222038 -0.000189293 0.0
0.249109 -0.000183012 0.0
0.244026 -0.000178112 0.0
0.24912 -0.000183021 0.0
0.23855 -0.000215152 0.0
0.234353 -0.00016772 0.0
0.244883 -0.000192994 0.0
0 0 0.0
0.0322902 -8.70838e-06 0.0
0.0940724 -5.68066e-05 0.0
0.0652151 -3.39112e-05 0.0
0.196697 -0.000146622 0.0
0.217872 -0.000180346 0.0
0.177439 -0.000148906 0.0
0.148691 -0.000103688 0.0
0.12033 -7.24675e-05 0.0
0 0 0.0
0.034392 -8.2907e-06 0.0
0.0716459 -3.39908e-05 0.0
0.152423 -0.000116403 0.0
0.127613 -0.000101132 0.0
0.187577 -0.000166524 0.0
0.21195 -0.000207662 0.0
0.248605 -0.00022752 0.0
0.225685 -0.000235432 0.0
0.249783 -0.000229179 0.0
0.246474 -0.000225299 0.0
0.242064 -0.00026403 0.0
0.23849 -0.000214537 0.0
0 0 0.0
0.0338719 -1.09323e-05 0.0
0.0999907 -7.60693e-05 0.0
0.069542 -4.52415e-05 0.0
0.206261 -0.000194335 0.0
0.222405 -0.000226729 0.0
0.189976 -0.000202125 0.0
0.168255 -0.000163052 0.0
0.143005 -0.000124899 0.0
0.124195 -9.19945e-05 0.0
0.0970858 -6.16888e-05 0.0
0 0 0.0
0.0360226 -1.05773e-05 0.0
0.0673173 -3.64698e-05 0.0
0.130332 -0.00012245 0.0
0.168481 -0.000163874 0.0
0.199471 -0.000214042 0.0
0.218378 -0.000251423 0.0
0.241992 -0.000264672 0.0
0.25 -0.000276334 0.0
0.247989 -0.000273097 0.0
0.229081 -0.000283914 0.0
0.244937 -0.000314912 0.0
0.24874 -0.000290111 0.0
0.234446 -0.000271304 0.0
0 0 0.0
0.0362294 -1.41174e-05 0.0
0.122656 -0.000125618 0.0
0.0712254 -5.36034e-05 0.0
0.208351 -0.000238124 0.0
0.225127 -0.000283733 0.0
0.198049 -0.000247451 0.0
0.177727 -0.000204702 0.0
0.146527 -0.000150715 0.0
0.119134 -0.000105092 0.0
0.0970534 -7.0069e-05 0.0
0 0 0.0
0.0349411 -1.18545e-05 0.0
0.0672807 -4.11115e-05 0.0
0.152299 -0.000171566 0.0
0.178016 -0.000209583 0.0
0.210115 -0.000265407 0.0
0.244858 -0.000314831 0.0
0.24942 -0.000323456 0.0
0.232225 -0.000334532 0.0
0.244197 -0.000358744 0.0
0.249989 -0.000383097 0.0
0.249132 -0.000340013 0.0
0.235913 -0.000325496 0.0
0.212962 -0.000324762 0.0
0 0 0.0
0.0371575 -1.66544e-05 0.0
0.141108 -0.000175214 0.0
0.0999538 -0.000105728 0.0
0.0665951 -5.22743e-05 0.0
0.21363 -0.000290263 0.0
0.186609 -0.000252645 0.0
0.165086 -0.00020542 0.0
0.122243 -0.000126253 0.0
0.0928689 -7.69604e-05 0.0
0 0 0.0
0.0349121 -1.32492e-05 0.0
0.0642303 -4.36969e-05 0.0
0.165595 -0.000219752 0.0
0.186966 -0.000258381 0.0
0.158121 -0.000230162 0.0
0.247091 -0.000368482 0.0
0.248691 -0.000424106 0.0
0.231051 -0.000376123 0.0
0.240525 -0.000401497 0.0
0.248757 -0.00042375 0.0
0.240203 -0.000374948 0.0
0.229257 -0.000368538 0.0
0.19918 -0.000318079 0.0
0.218633 -0.000380522 0.0
0 0 0.0
0.0346445 -1.63487e-05 0.0
0.126166 -0.000170441 0.0
0.0681731 -5.91339e-05 0.0
0.0988153 -0.000115258 0.0
0.208084 -0.000332607 0.0
0.189761 -0.000289825 0.0
0.168128 -0.00024039 0.0
0.140622 -0.000173855 0.0
0.0954123 -9.16869e-05 0.0
0 0 0.0
0.0332568 -1.35699e-05 0.0
0.0660604 -5.2084e-05 0.0
0.183221 -0.000300665 0.0
0.15926 -0.000257874 0.0
0.244899 -0.000437463 0.0
0.24966 -0.000480563 0.0
0.23596 -0.00044072 0.0
0.244858 -0.000465895 0.0
0.249378 -0.000479339 0.0
0.238621 -0.000443129 0.0
0.218421 -0.000400465 0.0
0.203102 -0.000371623 0.0
0.223369 -0.000435516 0.0
0 0 0.0
0.0478003 -3.27053e-05 0.0
0.127917 -0.00019456 0.0
0.0904189 -0.00010822 0.0
0.20261 -0.00035789 0.0
0.177969 -0.000294159 0.0
0.14789 -0.000220479 0.0
0.118723 -0.00014427 0.0
0.0780318 -7.6938e-05 0.0
0 0 0.0
0.0342358 -1.59986e-05 0.0
0.18783 -0.000356471 0.0
0.160398 -0.000287206 0.0
0.246452 -0.000500464 0.0
0.25 -0.000539504 0.0
0.240139 -0.000509374 0.0
0.247576 -0.000561865 0.0
0.23986 -0.000508976 0.0
0.227293 -0.0004712 0.0
0.20973 -0.000419076 0.0
0.227722 -0.000494683 0.0
0.210288 -0.000436812 0.0
0 0 0.0
0.0478628 -3.64846e-05 0.0
0.128012 -0.00021741 0.0
0.0905005 -0.000119053 0.0
0.187172 -0.000354583 0.0
0.159621 -0.000277701 0.0
0.0472037 -3.20426e-05 0.0
0.127087 -0.000191828 0.0
0.0895939 -0.000105869 0.0
0 0 0.0
0.187905 -0.000400988 0.0
0.160488 -0.000321737 0.0
0.247421 -0.000568336 0.0
0.249999 -0.000608401 0.0
0.240171 -0.000574763 0.0
0.247594 -0.000632159 0.0
0.227246 -0.000531051 0.0
0.239828 -0.00057367 0.0
0.187096 -0.000398736 0.0
0.209668 -0.000471977 0.0
0.227763 -0.000543464 0.0
0.210353 -0.000491417 0.0
0 0 0.0
0.0479317 -4.00301e-05 0.0
0.128118 -0.000241898 0.0
0.0906112 -0.000133582 0.0
0.126992 -0.000215125 0.0
0.159534 -0.000311866 0.0
0.0471453 -3.55349e-05 0.0
0.0895048 -0.000117724 0.0
0 0 0.0
0.187991 -0.000448157 0.0
0.160589 -0.000358914 0.0
0.247403 -0.000638435 0.0
0.249999 -0.000682124 0.0
0.227807 -0.000596536 0.0
0.240222 -0.000672894 0.0
0.247612 -0.000707971 0.0
0.227201 -0.000581829 0.0
0.239791 -0.000643136 0.0
0.187033 -0.000432701 0.0
0.209597 -0.000528426 0.0
0.210426 -0.000549714 0.0
0 0 0.0
0.0480126 -4.45237e-05 0.0
0.128255 -0.000272263 0.0
0.090724 -0.000147604 0.0
0.126904 -0.000235106 0.0
0.159435 -0.000347499 0.0
0.0470744 -3.94637e-05 0.0
0.0894061 -0.000129994 0.0
0 0 0.0
0.160702 -0.000398358 0.0
0.188114 -0.00051134 0.0
0.247383 -0.000713577 0.0
0.249998 -0.000761261 0.0
0.240257 -0.000735111 0.0
0.227891 -0.000690493 0.0
0.247634 -0.000788381 0.0
0.23975 -0.000717159 0.0
0.227153 -0.000637191 0.0
0.186939 -0.00048162 0.0
0.209518 -0.000588443 0.0
0.210508 -0.000612717 0.0
0 0 0.0
0.0480939 -4.91116e-05 0.0
0.128368 -0.000296952 0.0
0.0908486 -0.000162894 0.0
0.126789 -0.000260269 0.0
0.159325 -0.000385977 0.0
0 0 0.0
0.0892958 -0.000143769 0.0
0.0470029 -4.33531e-05 0.0
0.188224 -0.00056896 0.0
0.160829 -0.000441735 0.0
0.227949 -0.000753133 0.0
0.247361 -0.000795031 0.0
0.249998 -0.000846964 0.0
0.247652 -0.000856169 0.0
0.240294 -0.000800149 0.0
0.239704 -0.000797352 0.0
0.227087 -0.000708901 0.0
0.186806 -0.000547586 0.0
0.209429 -0.000654026 0.0
0.2106 -0.000680027 0.0
0 0 0.0
0.0481865 -5.41441e-05 0.0
0.0909722 -0.000177538 0.0
0.128514 -0.000327677 0.0
0.12664 -0.000291565 0.0
0.159202 -0.000427266 0.0
0 0 0.0
0.0469172 -4.76589e-05 0.0
0.0891877 -0.000156454 0.0
0.188317 -0.000613805 0.0
0.16097 -0.000488824 0.0
0.228011 -0.000820378 0.0
0.240365 -0.000924722 0.0
0.247335 -0.000883321 0.0
0.249997 -0.000939281 0.0
0.247672 -0.000927488 0.0
0.239652 -0.000884105 0.0
0.227014 -0.000786664 0.0
0.186717 -0.000591114 0.0
0.209329 -0.000723899 0.0
0.210703 -0.000753725 0.0
0 0 0.0
0.0482896 -5.94453e-05 0.0
0.128703 -0.000367759 0.0
0.0911393 -0.000198347 0.0
0.126518 -0.000316846 0.0
0.159065 -0.000471913 0.0
0.0468317 -5.17287e-05 0.0
0 0 0.0
0.0890421 -0.000173511 0.0
0.161126 -0.000540094 0.0
0.188485 -0.000695 0.0
0.228127 -0.0009403 0.0
0.240425 -0.0010251 0.0
0.247699 -0.00102779 0.0
0.247294 -0.00102232 0.0
0.249996 -0.00104133 0.0
0.239594 -0.000980377 0.0
0.226902 -0.000900267 0.0
0.186553 -0.000668603 0.0
0.209219 -0.000801096 0.0
0.210816 -0.00083337 0.0
0 0 0.0
0.048402 -6.52643e-05 0.0
0.0913068 -0.000217644 0.0
0.161299 -0.000594492 0.0
0.128857 -0.000398895 0.0
0.12636 -0.000348655 0.0
0.158945 -0.000510243 0.0
0.0467323 -5.70391e-05 0.0
0 0 0.0
0.0889089 -0.000189027 0.0
0.210922 -0.000907196 0.0
0.1886 -0.000750072 0.0
0.240477 -0.00110978 0.0
0.228223 -0.00104169 0.0
0.247746 -0.00118638 0.0
0.249996 -0.00115098 0.0
0.247268 -0.00110505 0.0
0.239529 -0.00108322 0.0
0.226824 -0.000977163 0.0
0.186442 -0.000719661 0.0
0.158745 -0.000573383 0.0
0.209096 -0.000883701 0.0
0 0 0.0
0.0914747 -0.000238077 0.0
0.0485343 -7.26336e-05 0.0
0.161451 -0.000644342 0.0
0.129085 -0.000447618 0.0
0.126187 -0.000383699 0.0
0 0 0.0
0.0466236 -6.25389e-05 0.0
0.0887317 -0.000209415 0.0
0.211039 -0.00098543 0.0
0.188807 -0.000849928 0.0
0.240533 -0.00120082 0.0
0.228331 -0.00115115 0.0
0.247772 -0.00128368 0.0
0.249993 -0.00127184 0.0
0.247241 -0.00119584 0.0
0.158597 -0.000616915 0.0
0.208981 -0.000959824 0.0
0.239457 -0.00119456 0.0
0.226739 -0.00106078 0.0
0.186282 -0.000793507 0.0
0 0 0.0
0.0486647 -7.93078e-05 0.0
0.0916753 -0.000261901 0.0
0.161659 -0.000709719 0.0
0.129309 -0.00049375 0.0
0.0885526 -0.000229047 0.0
0.125964 -0.000427463 0.0
0 0 0.0
0.0464987 -6.89281e-05 0.0
0.211188 -0.00108726 0.0
0.188995 -0.000938362 0.0
0.240609 -0.00132531 0.0
0.228449 -0.00127123 0.0
0.247803 -0.00138762 0.0
0.249993 -0.00140502 0.0
0.247182 -0.00137677 0.0
0.158397 -0.000678007 0.0
0.239378 -0.00131864 0.0
0.208856 -0.00103978 0.0
0.226586 -0.00121147 0.0
0.186058 -0.000897427 0.0
0 0 0.0
0.0919217 -0.000291687 0.0
0.0488157 -8.7397e-05 0.0
0.161935 -0.00079712 0.0
0.129553 -0.000544507 0.0
0.0883771 -0.00024893 0.0
0.12575 -0.000470358 0.0
0 0 0.0
0.046367 -7.56442e-05 0.0
0.189201 -0.0010364 0.0
0.211354 -0.00120006 0.0
0.240695 -0.00146397 0.0
0.247845 -0.00152866 0.0
0.22858 -0.00140238 0.0
0.24999 -0.00154762 0.0
0.247138 -0.00152156 0.0
0.239291 -0.00145193 0.0
0.249558 -0.00165841 0.0
0.158174 -0.000744828 0.0
0.226456 -0.00133605 0.0
0.208641 -0.00117849 0.0
0.185908 -0.000964143 0.0
0 0 0.0
0.0921472 -0.000319105 0.0
0.0489929 -9.75104e-05 0.0
0.162141 -0.000863013 0.0
0.129824 -0.00060051 0.0
0.0881645 -0.000272685 0.0
0.12555 -0.000509417 0.0
0 0 0.0
0.0462312 -8.25423e-05 0.0
0.189429 -0.00114324 0.0
0.211537 -0.00132428 0.0
0.240784 -0.00161312 0.0
0.228724 -0.00154876 0.0
0.247911 -0.00176319 0.0
0.249167 -0.00165841 0.0
0.243779 -0.00160961 0.0
0.2334 -0.00151172 0.0
0.249986 -0.00179373 0.0
0.15793 -0.000818014 0.0
0.218036 -0.00136847 0.0
0.203233 -0.00123691 0.0
0.185635 -0.00108441 0.0
0 0 0.0
0.0924174 -0.000352166 0.0
0.0491771 -0.000107099 0.0
0.162419 -0.00095255 0.0
0.130122 -0.000663203 0.0
0.125254 -0.000566852 0.0
0.0879303 -0.000299053 0.0
0 0 0.0
0.0460675 -9.01157e-05 0.0
0.189682 -0.00126191 0.0
0.211739 -0.00146131 0.0
0.24796 -0.00194214 0.0
0.228883 -0.00170843 0.0
0.24089 -0.0017803 0.0
0.247056 -0.00177136 0.0
0.239129 -0.00169553 0.0
0.226212 -0.00156737 0.0
0.249978 -0.00197678 0.0
0.157659 -0.000899533 0.0
0.208316 -0.0013876 0.0
0.185387 -0.00119322 0.0
0 0 0.0
0.0493714 -0.000117616 0.0
0.0927166 -0.0003897 0.0
0.130401 -0.000721254 0.0
0.189959 -0.00139089 0.0
0.162728 -0.00105151 0.0
0.124967 -0.000621912 0.0
0.0876729 -0.00032802 0.0
0.0458943 -9.87204e-05 0.0
0 0 0.0
0.229026 -0.00185358 0.0
0.211963 -0.00161442 0.0
0.248005 -0.00209678 0.0
0.241001 -0.00196636 0.0
0.226042 -0.00172451 0.0
0.246993 -0.00195093 0.0
0.23901 -0.00186696 0.0
0.249975 -0.00217832 0.0
0.185119 -0.00131056 0.0
0.1573 -0.00100468 0.0
0.208025 -0.00157024 0.0
0 0 0.0
0.0495971 -0.000130739 0.0
0.0930833 -0.000435292 0.0
0.130758 -0.00079575 0.0
0.190185 -0.00150139 0.0
0.163139 -0.00118899 0.0
0.124654 -0.000681265 0.0
0.0873631 -0.000362636 0.0
0.0457067 -0.00010762 0.0
0 0 0.0
0.124307 -0.000748529 0.0
0.22918 -0.00200546 0.0
0.212286 -0.00184031 0.0
0.241175 -0.00225913 0.0
0.248051 -0.00226012 0.0
0.225786 -0.00196094 0.0
0.238883 -0.00205372 0.0
0.246926 -0.00215046 0.0
0.249964 -0.00240034 0.0
0.184821 -0.00143987 0.0
0.156965 -0.00110656 0.0
0.207775 -0.00173022 0.0
0 0 0.0
0.0498463 -0.000144553 0.0
0.0934545 -0.000482232 0.0
0.131154 -0.00088067 0.0
0.190516 -0.00165628 0.0
0.163526 -0.00131627 0.0
0.0454973 -0.000118893 0.0
0.0870479 -0.000398594 0.0
0 0 0.0
0.123988 -0.000808415 0.0
0.229386 -0.00221767 0.0
0.212567 -0.00203479 0.0
0.241316 -0.00249262 0.0
0.248112 -0.00249534 0.0
0.225607 -0.00212355 0.0
0.238743 -0.00225934 0.0
0.249956 -0.00264657 0.0
0.246813 -0.00247418 0.0
0.184576 -0.00154263 0.0
0.156597 -0.00121562 0.0
0.2075 -0.00190086 0.0
0 0 0.0
0.0501203 -0.000159633 0.0
0.0938624 -0.000533074 0.0
0.131659 -0.000988176 0.0
0.190973 -0.00187635 0.0
0.212873 -0.0022521 0.0
0.163948 -0.00145909 0.0
0.0452838 -0.00012951 0.0
0.0867058 -0.000436702 0.0
0 0 0.0
0.123578 -0.000887094 0.0
0.229691 -0.00253219 0.0
0.241436 -0.00270203 0.0
0.248181 -0.00275409 0.0
0.249944 -0.00285007 0.0
0.225418 -0.00229482 0.0
0.238579 -0.00248973 0.0
0.246722 -0.00272495 0.0
0.156193 -0.00133632 0.0
0.184224 -0.00169468 0.0
0.207194 -0.00208829 0.0
0 0 0.0
0.0504446 -0.00017884 0.0
0.0943187 -0.000593208 0.0
0.132153 -0.00109863 0.0
0.191282 -0.00202855 0.0
0.213208 -0.00248907 0.0
0.164418 -0.00161809 0.0
0.0450362 -0.000141462 0.0
0.0863292 -0.000478732 0.0
0 0 0.0
0.155842 -0.0014342 0.0
0.0859179 -0.000522789 0.0
0.123057 -0.000985565 0.0
0.229947 -0.00281218 0.0
0.241563 -0.00291853 0.0
0.248285 -0.00317676 0.0
0.249935 -0.00306348 0.0
0.246646 -0.00293857 0.0
0.225165 -0.00252066 0.0
0.238331 -0.00284711 0.0
0.183732 -0.0019018 0.0
0.206911 -0.00226702 0.0
0.230176 -0.00305092 0.0
0 0 0.0
0.0507869 -0.000199159 0.0
0.1327 -0.00122317 0.0
0.0948243 -0.000662087 0.0
0.213582 -0.00276204 0.0
0.191839 -0.00230671 0.0
0.164935 -0.00179667 0.0
0.0447533 -0.000155056 0.0
0 0 0.0
0.183405 -0.00204274 0.0
0.155363 -0.00157419 0.0
0.122552 -0.00108275 0.0
0.044452 -0.000170902 0.0
0.0854634 -0.00057421 0.0
0.24174 -0.00322743 0.0
0.248345 -0.00343276 0.0
0.249911 -0.00337781 0.0
0.249894 -0.00363843 0.0
0.246557 -0.00316532 0.0
0.224879 -0.00277226 0.0
0.238117 -0.00313367 0.0
0.206601 -0.00244867 0.0
0.230414 -0.0033153 0.0
0.0511521 -0.000222706 0.0
0 0 0.0
0.133212 -0.00133901 0.0
0.0953839 -0.000738055 0.0
0.213987 -0.00306392 0.0
0.192213 -0.00249859 0.0
0.16551 -0.0020004 0.0
0 0 0.0
0.182935 -0.0022346 0.0
0.154727 -0.00175402 0.0
0.12209 -0.00116451 0.0
0.0441441 -0.000186127 0.0
0.0849688 -0.000628334 0.0
0.242001 -0.00371847 0.0
0.248409 -0.00370121 0.0
0.249867 -0.00391219 0.0
0.246376 -0.00363008 0.0
0.224569 -0.0030422 0.0
0.237891 -0.0034457 0.0
0.206078 -0.00276411 0.0
0.23074 -0.00367773 0.0
0 0 0.0
0.051577 -0.00025102 0.0
0.133873 -0.00149631 0.0
0.0959495 -0.000818973 0.0
0.166143 -0.00222703 0.0
0.214433 -0.00340732 0.0
0.192893 -0.00285052 0.0
0 0 0.0
0 0 0.0
0.182415 -0.0024488 0.0
0.154138 -0.00192288 0.0
0.121496 -0.00127522 0.0
0.0844277 -0.000686746 0.0
0.043789 -0.000202645 0.0
0.242209 -0.0041154 0.0
0.248486 -0.00408972 0.0
0.237686 -0.0037149 0.0
0.249828 -0.00430992 0.0
0.246223 -0.00400028 0.0
0.224221 -0.00334206 0.0
0.205621 -0.00302761 0.0
0.242379 -0.00446914 0.0
0.231077 -0.00408182 0.0
0.0520495 -0.000280402 0.0
0.0966369 -0.000914426 0.0
0.134613 -0.00168067 0.0
0.166703 -0.00243979 0.0
0.214923 -0.00378923 0.0
0.193344 -0.00310443 0.0
0 0 0.0
0 0 0.0
0.15363 -0.002057 0.0
0.181696 -0.0027319 0.0
0.0838965 -0.000740214 0.0
0.120746 -0.00140915 0.0
0.0433998 -0.000222261 0.0
0.248608 -0.00470991 0.0
0.249769 -0.00475327 0.0
0.205123 -0.00331286 0.0
0.237459 -0.00399731 0.0
0.246093 -0.00431144 0.0
0.22369 -0.00378059 0.0
0.242564 -0.00483852 0.0
0.231595 -0.00470433 0.0
0.21545 -0.00422433 0.0
0.0526156 -0.000318518 0.0
0.0974136 -0.00103513 0.0
0.135566 -0.00192744 0.0
0.167468 -0.00272882 0.0
0.194166 -0.003571 0.0
0 0 0.0
0 0 0.0
0.152795 -0.00227859 0.0
0.181053 -0.00298658 0.0
0.0831917 -0.000813225 0.0
0.120028 -0.00153176 0.0
0.0429588 -0.000241193 0.0
0.245945 -0.00464291 0.0
0.249697 -0.00522974 0.0
0.248676 -0.00520993 0.0
0.204574 -0.00361786 0.0
0.237153 -0.00438771 0.0
0.223245 -0.00414953 0.0
0.180349 -0.00325376 0.0
0.242886 -0.00557768 0.0
0 0 0.0
0.231988 -0.00524622 0.0
0.194899 -0.00401272 0.0
0.216018 -0.0047118 0.0
0.0532066 -0.000364065 0.0
0.136362 -0.00214977 0.0
0.0983893 -0.00120247 0.0
0.168489 -0.00316144 0.0
0 0 0.0
0 0 0.0
0 0 0.0
0 0 0.0
0 0 0.0
0.0425238 -0.000258807 0.0
0.119242 -0.00166512 0.0
0.152024 -0.00248042 0.0
0.0825642 -0.000875767 0.0
0.245726 -0.00509215 0.0
0.249599 -0.0057562 0.0
0.248745 -0.00575856 0.0
0.222837 -0.00445638 0.0
0.203962 -0.00394566 0.0
0.236643 -0.00498051 0.0
0.203397 -0.00423887 0.0
0.179776 -0.00345862 0.0
0.243113 -0.00619054 0.0
0.232412 -0.00583612 0.0
0 0 0.0
8.60337e-05 -4.10268e-05 0.0
0 0 0.0
-0.000176517 0.000603185 0.0
0.216635 -0.00527446 0.0
0.195498 -0.00438249 0.0
0.0539458 -0.000425533 0.0
0.137395 -0.00244822 0.0
0.099403 -0.00138905 0.0
0.169455 -0.0035926 0.0
0 0 0.0
0 0 0.0
0 0 0.0
-0.000114476 0.000172418 0.0
2.71663e-05 -0.00018365 0.0
0.000126788 -0.000141836 0.0
0 0 0.0
0.0420256 -0.000280901 0.0
0.118528 -0.00177792 0.0
0.151184 -0.00268742 0.0
0.0817358 -0.000952591 0.0
0.245479 -0.00559204 0.0
0.24947 -0.00632809 0.0
0.248794 -0.00635502 0.0
0.222395 -0.00478812 0.0
0.236317 -0.00536111 0.0
0.20278 -0.00453865 0.0
0.178734 -0.00381709 0.0
0.243346 -0.00685943 0.0
0.235919 -0.00656158 0.0
0.225624 -0.00613523 0.0
0 0 0.0
0.000198331 -4.18192e-05 0.0
0 0 0.0
0 0 0.0
-0.000668283 0.00175266 0.0
-0.000561928 0.000917601 0.0
0.212444 -0.00561756 0.0
0.196341 -0.00494965 0.0
0.100443 -0.00159551 0.0
0.0547332 -0.000506188 0.0
0.138554 -0.00282037 0.0
0.170502 -0.00410079 0.0
0 0 0.0
-0.000103694 -0.000111501 0.0
-0.000315828 0.000257642 0.0
2.81552e-05 -0.000169113 0.0
0.000157253 -6.36657e-05 0.0
0 0 0.0
0.0414907 -0.000302638 0.0
0.11762 -0.00191513 0.0
0.150274 -0.00289459 0.0
0.0809155 -0.00102533 0.0
0.245182 -0.00612547 0.0
0.249311 -0.00694655 0.0
0.24882 -0.00700762 0.0
0.22158 -0.00537473 0.0
0.235948 -0.00574868 0.0
0.201984 -0.00491752 0.0
0.149279 -0.00312048 0.0
0.177806 -0.0041246 0.0
0.243521 -0.00743635 0.0
0.233133 -0.00698596 0.0
0.217756 -0.00642925 0.0
0 0 0.0
0.000229689 8.51164e-06 0.0
0 0 0.0
0 0 0.0
0 0 0.0
0 0 0.0
-0.000932413 0.00102654 0.0
-0.000217733 0.00170399 0.0
-0.000740052 0.00253105 0.0
-0.00166473 0.00347395 0.0
-0.00127069 0.00209094 0.0
0 0 0.0
-0.000106005 0.00337778 0.0
0.197468 -0.00580932 0.0
0.171409 -0.0045972 0.0
0 0 0.0
0.055758 -0.00062492 0.0
0.10176 -0.00189334 0.0
0.14006 -0.00340063 0.0
0 0 0.0
0 0 0.0
-0.000419758 0.000289745 0.0
-0.000167465 0.000104026 0.0