# vtk DataFile Version 3.0
Mesh NS-CD Problem
ASCII
DATASET UNSTRUCTURED_GRID
POINTS 10839 float
-2 0.3 0.0
-2 0.4 0.0
-2 0.35 0.0
-2 0.45 0.0
-2 0.5 0.0
-2 0.55 0.0
-2 0 0.0
-2 0.05 0.0
-2 0.85 0.0
-2 0.9 0.0
-2 0.1 0.0
-2 0.15 0.0
-2 0.25 0.0
-2 0.2 0.0
-1.96653 0.266667 0.0
-1.96524 0.415385 0.0
-1.96485 0.315 0.0
-1.96348 0.363636 0.0
-1.96414 0.464286 0.0
-2 0.6 0.0
-1.96538 0.584615 0.0
-1.96538 0.538462 0.0
-1.94979 0 0.0
-1.96653 0.0666666 0.0
-1.93306 0.0333333 0.0
-2 0.8 0.0
-2 0.75 0.0
-2 0.7 0.0
-2 0.65 0.0
-1.96249 0.7375 0.0
-1.96666 0.833333 0.0
-2 1 0.0
-2 0.95 0.0
-1.96249 0.8875 0.0
-1.96666 0.933333 0.0
-1.96234 0.1125 0.0
-1.96653 0.166667 0.0
-1.93724 0.225 0.0
-1.92971 0.28 0.0
-1.93048 0.380769 0.0
-1.93048 0.423077 0.0
-1.89958 0.3375 0.0
-1.9292 0.484203 0.0
-1.92117 0.530907 0.0
-1.96363 0.636364 0.0
-1.93076 0.576923 0.0
-1.89958 0 0.0
-1.88703 0.0375 0.0
-1.90963 0.08 0.0
-1.86611 0.0666666 0.0
-1.93749 0.775 0.0
-1.93635 0.672727 0.0
-1.92999 0.72 0.0
-1.93332 0.866667 0.0
-1.92856 0.821429 0.0
-1.94999 1 0.0
-1.92499 0.9625 0.0
-1.92499 0.925 0.0
-1.89998 0.9 0.0
-1.89958 0.125 0.0
-1.92827 0.178571 0.0
-1.89958 0.233333 0.0
-1.89045 0.290909 0.0
-1.86096 0.311538 0.0
-1.89241 0.392857 0.0
-1.89334 0.448489 0.0
-1.85655 0.357143 0.0
-1.89614 0.653846 0.0
-1.89427 0.504121 0.0
-1.8952 0.559753 0.0
-1.89614 0.615385 0.0
-1.84937 0 0.0
-1.83264 0.0333333 0.0
-1.85655 0.107143 0.0
-1.81172 0.075 0.0
-1.89998 0.766667 0.0
-1.89089 0.709091 0.0
-1.87498 0.85 0.0
-1.85998 0.79 0.0
-1.88748 0.8125 0.0
-1.89998 1 0.0
-1.88748 0.9625 0.0
-1.86664 0.933333 0.0
-1.85712 0.892857 0.0
-1.87448 0.15 0.0
-1.86611 0.194444 0.0
-1.83264 0.133333 0.0
-1.83264 0.2625 0.0
-1.82068 0.321429 0.0
-1.85664 0.404762 0.0
-1.85674 0.452381 0.0
-1.85683 0.5 0.0
-1.81184 0.375 0.0
-1.85712 0.642857 0.0
-1.85693 0.547619 0.0
-1.85702 0.595238 0.0
-1.79917 0 0.0
-1.78482 0.0357143 0.0
-1.79917 0.116667 0.0
-1.76569 0.0666666 0.0
-1.85452 0.745455 0.0
-1.82689 0.692308 0.0
-1.81815 0.781818 0.0
-1.82497 0.825 0.0
-1.84997 1 0.0
-1.8333 0.958333 0.0
-1.81247 0.8875 0.0
-1.81247 0.925 0.0
-1.81742 0.218182 0.0
-1.82427 0.175 0.0
-1.77634 0.145455 0.0
-1.79144 0.242308 0.0
-1.78482 0.285714 0.0
-1.77469 0.332653 0.0
-1.81215 0.529762 0.0
-1.81194 0.422619 0.0
-1.81203 0.470238 0.0
-1.76714 0.392857 0.0
-1.81234 0.625 0.0
-1.79732 0.571429 0.0
-1.74896 0 0.0
-1.73222 0.0333333 0.0
-1.75398 0.105 0.0
-1.71883 0.07 0.0
-1.79227 0.730769 0.0
-1.78007 0.679121 0.0
-1.75765 0.769231 0.0
-1.78178 0.818182 0.0
-1.78996 0.86 0.0
-1.79996 1 0.0
-1.78568 0.964286 0.0
-1.76663 0.922222 0.0
-1.76569 0.1875 0.0
-1.73222 0.15 0.0
-1.74896 0.25 0.0
-1.73714 0.304762 0.0
-1.76743 0.537202 0.0
-1.72869 0.343878 0.0
-1.76732 0.485119 0.0
-1.76723 0.440476 0.0
-1.72243 0.410714 0.0
-1.76757 0.607143 0.0
-1.69875 0 0.0
-1.68369 0.035 0.0
-1.69875 0.1125 0.0
-1.66528 0.075 0.0
-1.74341 0.708974 0.0
-1.73324 0.665934 0.0
-1.70441 0.74478 0.0
-1.71423 0.785714 0.0
-1.72303 0.826923 0.0
-1.74541 0.854545 0.0
-1.74541 0.890909 0.0
-1.74996 1 0.0
-1.73745 0.9625 0.0
-1.71359 0.927273 0.0
-1.68716 0.153846 0.0
-1.7131 0.214286 0.0
-1.70725 0.275 0.0
-1.69712 0.321939 0.0
-1.72279 0.589286 0.0
-1.72261 0.5 0.0
-1.7227 0.544643 0.0
-1.6827 0.355102 0.0
-1.67773 0.428571 0.0
-1.70763 0.464286 0.0
-1.70369 0.62449 0.0
-1.64854 0 0.0
-1.63181 0.0375 0.0
-1.64137 0.142857 0.0
-1.61764 0.0769231 0.0
-1.69458 0.703846 0.0
-1.67471 0.657437 0.0
-1.66143 0.727637 0.0
-1.67125 0.768571 0.0
-1.67851 0.821429 0.0
-1.68841 0.861538 0.0
-1.70904 0.890909 0.0
-1.69995 1 0.0
-1.68176 0.963636 0.0
-1.67267 0.927273 0.0
-1.65427 0.187143 0.0
-1.66718 0.231429 0.0
-1.66554 0.3 0.0
-1.67802 0.571429 0.0
-1.67792 0.523809 0.0
-1.6367 0.366327 0.0
-1.63682 0.423469 0.0
-1.62568 0.502976 0.0
-1.6629 0.470238 0.0
-1.65254 0.618367 0.0
-1.6059 0.307143 0.0
-1.59833 0 0.0
-1.58288 0.0384615 0.0
-1.60563 0.169643 0.0
-1.58179 0.112271 0.0
-1.56964 0.0714286 0.0
-1.64574 0.690385 0.0
-1.62827 0.751429 0.0
-1.63371 0.791071 0.0
-1.64279 0.857143 0.0
-1.65378 0.896154 0.0
-1.64994 1 0.0
-1.6363 0.963636 0.0
-1.61916 0.930769 0.0
-1.61345 0.209107 0.0
-1.62126 0.248571 0.0
-1.56989 0.196429 0.0
-1.63324 0.553571 0.0
-1.58846 0.535714 0.0
-1.59408 0.361905 0.0
-1.59161 0.402211 0.0
-1.58832 0.464286 0.0
-1.61504 0.598581 0.0
-1.59683 0.64359 0.0
-1.57899 0.274107 0.0
-1.56176 0.322381 0.0
-1.54812 0 0.0
-1.53378 0.0357143 0.0
-1.54593 0.147619 0.0
-1.53385 0.0732143 0.0
-1.53393 0.110714 0.0
-1.58522 0.704286 0.0
-1.58709 0.745 0.0
-1.58896 0.785714 0.0
-1.60695 0.830357 0.0
-1.60707 0.892857 0.0
-1.59993 1 0.0
-1.58454 0.965385 0.0
-1.57135 0.928571 0.0
-1.55209 0.241071 0.0
-1.5291 0.198214 0.0
-1.56936 0.570918 0.0
-1.54369 0.517857 0.0
-1.5464 0.380952 0.0
-1.54564 0.427721 0.0
-1.54488 0.47449 0.0
-1.55026 0.606122 0.0
-1.54222 0.677143 0.0
-1.52943 0.282857 0.0
-1.52143 0.33619 0.0
-1.49792 0 0.0
-1.49802 0.05 0.0
-1.49822 0.15 0.0
-1.49312 0.1 0.0
-1.5423 0.717143 0.0
-1.54419 0.767857 0.0
-1.54727 0.819048 0.0
-1.57122 0.861905 0.0
-1.53553 0.914286 0.0
-1.54992 1 0.0
-1.53563 0.964286 0.0
-1.49842 0.25 0.0
-1.48831 0.2 0.0
-1.5214 0.558929 0.0
-1.49891 0.5 0.0
-1.49871 0.4 0.0
-1.47631 0.45 0.0
-1.49911 0.6 0.0
-1.49921 0.65 0.0
-1.49931 0.7 0.0
-1.48111 0.35 0.0
-1.48351 0.3 0.0
-1.44771 0 0.0
-1.44782 0.05 0.0
-1.44804 0.15 0.0
-1.44793 0.1 0.0
-1.49941 0.75 0.0
-1.49951 0.8 0.0
-1.49981 0.95 0.0
-1.49961 0.85 0.0
-1.49971 0.9 0.0
-1.49991 1 0.0
-1.44826 0.25 0.0
-1.43815 0.2 0.0
-1.47151 0.55 0.0
-1.44881 0.5 0.0
-1.44859 0.4 0.0
-1.42619 0.45 0.0
-1.44913 0.65 0.0
-1.44902 0.6 0.0
-1.44935 0.75 0.0
-1.44924 0.7 0.0
-1.43972 0.35 0.0
-1.43336 0.3 0.0
-1.3975 0 0.0
-1.39762 0.05 0.0
-1.39786 0.15 0.0
-1.39274 0.1 0.0
-1.44957 0.85 0.0
-1.44946 0.8 0.0
-1.4523 0.95 0.0
-1.44968 0.9 0.0
-1.4499 1 0.0
-1.3981 0.25 0.0
-1.38798 0.2 0.0
-1.42141 0.55 0.0
-1.3987 0.5 0.0
-1.39834 0.35 0.0
-1.37845 0.4 0.0
-1.37607 0.45 0.0
-1.40784 0.65 0.0
-1.39894 0.6 0.0
-1.41185 0.75 0.0
-1.39918 0.7 0.0
-1.38322 0.3 0.0
-1.34729 0 0.0
-1.34492 0.05 0.0
-1.34018 0.15 0.0
-1.34255 0.1 0.0
-1.40707 0.85 0.0
-1.39941 0.8 0.0
-1.39977 0.95 0.0
-1.39965 0.9 0.0
-1.39989 1 0.0
-1.33781 0.2 0.0
-1.33544 0.25 0.0
-1.37131 0.55 0.0
-1.34859 0.5 0.0
-1.33833 0.4 0.0
-1.3307 0.35 0.0
-1.32595 0.45 0.0
-1.34885 0.6 0.0
-1.36655 0.65 0.0
-1.36179 0.75 0.0
-1.34911 0.7 0.0
-1.33307 0.3 0.0
-1.29708 0 0.0
-1.29722 0.05 0.0
-1.2975 0.15 0.0
-1.29236 0.1 0.0
-1.35703 0.85 0.0
-1.34937 0.8 0.0
-1.34988 1 0.0
-1.34962 0.9 0.0
-1.35226 0.95 0.0
-1.28528 0.25 0.0
-1.28764 0.2 0.0
-1.28931 0.35 0.0
-1.32121 0.55 0.0
-1.29848 0.5 0.0
-1.28709 0.45 0.0
-1.2982 0.4 0.0
-1.29876 0.6 0.0
-1.31647 0.65 0.0
-1.29918 0.75 0.0
-1.29904 0.7 0.0
-1.28292 0.3 0.0
-1.24687 0 0.0
-1.24702 0.05 0.0
-1.24717 0.1 0.0
-1.24732 0.15 0.0
-1.29946 0.85 0.0
-1.29932 0.8 0.0
-1.29987 1 0.0
-1.29974 0.95 0.0
-1.30462 0.9 0.0
-1.24762 0.25 0.0
-1.23747 0.2 0.0
-1.24792 0.35 0.0
-1.22807 0.4 0.0
-1.27111 0.55 0.0
-1.24837 0.5 0.0
-1.24822 0.45 0.0
-1.24867 0.6 0.0
-1.26639 0.65 0.0
-1.26167 0.75 0.0
-1.24897 0.7 0.0
-1.23277 0.3 0.0
-1.19667 0 0.0
-1.19683 0.05 0.0
-1.18964 0.15 0.0
-1.19198 0.1 0.0
-1.25695 0.85 0.0
-1.24927 0.8 0.0
-1.25223 0.95 0.0
-1.24987 1 0.0
-1.24957 0.9 0.0
-1.1873 0.2 0.0
-1.18496 0.25 0.0
-1.18028 0.35 0.0
-1.17794 0.4 0.0
-1.1981 0.45 0.0
-1.19842 0.55 0.0
-1.19826 0.5 0.0
-1.19858 0.6 0.0
-1.19874 0.65 0.0
-1.19906 0.75 0.0
-1.1989 0.7 0.0
-1.18262 0.3 0.0
-1.14646 0 0.0
-1.14663 0.05 0.0
-1.1418 0.1 0.0
-1.13713 0.2 0.0
-1.14697 0.15 0.0
-1.20691 0.85 0.0
-1.20926 0.8 0.0
-1.20221 0.95 0.0
-1.19986 1 0.0
-1.20456 0.9 0.0
-1.13997 0.3 0.0
-1.14731 0.25 0.0
-1.13781 0.4 0.0
-1.13014 0.35 0.0
-1.12548 0.45 0.0
-1.14815 0.5 0.0
-1.15962 0.55 0.0
-1.14849 0.6 0.0
-1.15745 0.65 0.0
-1.16155 0.75 0.0
-1.14917 0.8 0.0
-1.14883 0.7 0.0
-1.09625 0 0.0
-1.09661 0.1 0.0
-1.09393 0.05 0.0
-1.09697 0.2 0.0
-1.08929 0.15 0.0
-1.15687 0.85 0.0
-1.14985 1 0.0
-1.15219 0.95 0.0
-1.14951 0.9 0.0
-1.09733 0.3 0.0
-1.08465 0.25 0.0
-1.09769 0.4 0.0
-1.08 0.35 0.0
-1.08661 0.45 0.0
-1.09804 0.5 0.0
-1.12082 0.55 0.0
-1.10916 0.8 0.0
-1.10629 0.7 0.0
-1.0984 0.6 0.0
-1.11616 0.65 0.0
-1.11149 0.75 0.0
-1.04604 0 0.0
-1.04623 0.05 0.0
-1.04642 0.1 0.0
-1.0468 0.2 0.0
-1.03911 0.15 0.0
-1.09948 0.9 0.0
-1.0993 0.85 0.0
-1.09984 1 0.0
-1.09966 0.95 0.0
-1.04718 0.3 0.0
-1.03449 0.25 0.0
-1.04756 0.4 0.0
-1.02986 0.35 0.0
-1.04775 0.45 0.0
-1.04794 0.5 0.0
-1.04813 0.55 0.0
-1.05911 0.8 0.0
-1.04831 0.6 0.0
-1.06376 0.7 0.0
-1.0485 0.65 0.0
-1.04888 0.75 0.0
-0.995833 0 0.0
-0.991231 0.1 0.0
-0.996033 0.05 0.0
-0.986629 0.2 0.0
-0.98893 0.15 0.0
-1.05447 0.9 0.0
-1.04926 0.85 0.0
-1.04983 1 0.0
-1.04964 0.95 0.0
-0.984328 0.25 0.0
-0.99703 0.3 0.0
-0.997429 0.4 0.0
-0.997628 0.45 0.0
-0.979726 0.35 0.0
-0.997827 0.5 0.0
-0.998027 0.55 0.0
-0.998226 0.6 0.0
-0.961416 0.475 0.0
-1.00907 0.8 0.0
-0.998426 0.65 0.0
-0.998625 0.7 0.0
-1.01138 0.75 0.0
-0.945625 0 0.0
-0.946044 0.1 0.0
-0.943334 0.05 0.0
-0.946463 0.2 0.0
-0.938752 0.15 0.0
-1.00444 0.9 0.0
-1.00675 0.85 0.0
-0.999821 1 0.0
-1.00213 0.95 0.0
-0.93417 0.25 0.0
-0.946881 0.3 0.0
-0.9473 0.4 0.0
-0.929588 0.35 0.0
-0.925005 0.45 0.0
-0.960371 0.525 0.0
-0.959325 0.575 0.0
-0.958279 0.625 0.0
-0.922714 0.5 0.0
-0.959017 0.8 0.0
-0.957233 0.675 0.0
-0.952999 0.7125 0.0
-0.948766 0.75 0.0
-0.895417 0 0.0
-0.895855 0.1 0.0
-0.893136 0.05 0.0
-0.896294 0.2 0.0
-0.888573 0.15 0.0
-0.949184 0.85 0.0
-0.954415 0.9 0.0
-0.949812 1 0.0
-0.949603 0.95 0.0
-0.884011 0.25 0.0
-0.896733 0.3 0.0
-0.874887 0.45 0.0
-0.879449 0.35 0.0
-0.897171 0.4 0.0
-0.920423 0.55 0.0
-0.918132 0.6 0.0
-0.915841 0.65 0.0
-0.872606 0.5 0.0
-0.908968 0.8 0.0
-0.91355 0.7 0.0
-0.898707 0.75 0.0
-0.845208 0 0.0
-0.845438 0.05 0.0
-0.845667 0.1 0.0
-0.845896 0.15 0.0
-0.833853 0.25 0.0
-0.846126 0.2 0.0
-0.899146 0.85 0.0
-0.904386 0.9 0.0
-0.899584 0.95 0.0
-0.899804 1 0.0
-0.838062 0.35 0.0
[...]
POINT_DATA 10839
VECTORS Velocity float
0.21 0 0.0
0.24 0 0.0
0.2275 0 0.0
0.2475 0 0.0
0.25 0 0.0
0.2475 0 0.0
0 0 0.0
0.0475 0 0.0
0.1275 0 0.0
0.09 0 0.0
0.09 0 0.0
0.1275 0 0.0
0.1875 0 0.0
0.16 0 0.0
0.195557 -2.44096e-05 0.0
0.242841 -3.32618e-05 0.0
0.215776 -2.90388e-05 0.0
0.231406 -3.27245e-05 0.0
0.248725 -3.54094e-05 0.0
0.24 0 0.0
0.24284 -3.31876e-05 0.0
0.24852 -3.41016e-05 0.0
0 0 0.0
0.062224 -4.27725e-06 0.0
0.0322271 -2.82823e-06 0.0
0.16 0 0.0
0.1875 0 0.0
0.21 0 0.0
0.2275 0 0.0
0.193592 -2.7399e-05 0.0
0.138887 -1.52402e-05 0.0
0 0 0.0
0.0475 0 0.0
0.0998414 -1.06015e-05 0.0
0.0622205 -4.32542e-06 0.0
0.0998462 -1.1076e-05 0.0
0.138891 -1.53743e-05 0.0
0.17438 -3.84739e-05 0.0
0.201606 -5.26621e-05 0.0
0.235787 -6.42543e-05 0.0
0.244085 -6.72232e-05 0.0
0.223602 -8.61163e-05 0.0
0.249751 -7.02266e-05 0.0
0.249044 -7.82451e-05 0.0
0.231404 -3.32545e-05 0.0
0.244081 -6.64298e-05 0.0
0 0 0.0
0.0361084 -5.46403e-06 0.0
0.0736129 -1.52568e-05 0.0
0.0622496 -1.67141e-05 0.0
0.17437 -3.79118e-05 0.0
0.220162 -5.26308e-05 0.0
0.201594 -5.27418e-05 0.0
0.115548 -2.27711e-05 0.0
0.146676 -3.52436e-05 0.0
0 0 0.0
0.0360873 -3.6844e-06 0.0
0.0693659 -1.19364e-05 0.0
0.0899832 -2.36584e-05 0.0
0.109391 -3.19785e-05 0.0
0.146692 -3.45589e-05 0.0
0.178902 -6.44725e-05 0.0
0.206293 -8.4248e-05 0.0
0.214501 -0.000113474 0.0
0.238527 -0.000100667 0.0
0.24735 -0.000104814 0.0
0.229607 -0.000128093 0.0
0.226323 -9.04804e-05 0.0
0.249983 -0.00010533 0.0
0.246426 -0.000102481 0.0
0.23668 -9.65038e-05 0.0
0 0 0.0
0.0322511 -6.17488e-06 0.0
0.0956971 -3.63086e-05 0.0
0.0694301 -2.73689e-05 0.0
0.178876 -6.3496e-05 0.0
0.206269 -8.48874e-05 0.0
0.127476 -4.89931e-05 0.0
0.165873 -8.0333e-05 0.0
0.152325 -5.75667e-05 0.0
0 0 0.0
0.0360793 -5.29263e-06 0.0
0.0621953 -1.65395e-05 0.0
0.0956294 -3.70022e-05 0.0
0.127525 -4.94611e-05 0.0
0.156661 -7.18002e-05 0.0
0.115601 -5.67719e-05 0.0
0.193627 -0.000118293 0.0
0.218142 -0.000149625 0.0
0.24094 -0.000136464 0.0
0.247737 -0.000141513 0.0
0.25 -0.000143055 0.0
0.234398 -0.000173166 0.0
0.229576 -0.00012633 0.0
0.247727 -0.000141204 0.0
0.240919 -0.000136227 0.0
0 0 0.0
0.034488 -8.54847e-06 0.0
0.103122 -5.57748e-05 0.0
0.0623042 -2.77242e-05 0.0
0.189727 -0.000100571 0.0
0.212988 -0.000140387 0.0
0.170533 -0.000108899 0.0
0.144329 -8.08647e-05 0.0
0 0 0.0
0.0398975 -9.10573e-06 0.0
0.0997854 -5.07242e-05 0.0
0.0693204 -2.69265e-05 0.0
0.170625 -0.000109012 0.0
0.144422 -8.26083e-05 0.0
0.124378 -8.37545e-05 0.0
0.18365 -0.000137744 0.0
0.204132 -0.000164864 0.0
0.222039 -0.000194058 0.0
0.249109 -0.000187736 0.0
0.244027 -0.000182739 0.0
0.24912 -0.000187743 0.0
0.238551 -0.000220364 0.0
0.234353 -0.000172155 0.0
0.244882 -0.000197884 0.0
0 0 0.0
0.032293 -9.05345e-06 0.0
0.0940754 -5.86254e-05 0.0
0.0652189 -3.50645e-05 0.0
0.196695 -0.000150611 0.0
0.217871 -0.000184974 0.0
0.177437 -0.000152853 0.0
0.148689 -0.00010673 0.0
0.120328 -7.47649e-05 0.0
0 0 0.0
0.03439 -8.63566e-06 0.0
0.071643 -3.51937e-05 0.0
0.152425 -0.000119663 0.0
0.127616 -0.000103964 0.0
0.187579 -0.00017075 0.0
0.211952 -0.000212614 0.0
0.248605 -0.000232958 0.0
0.225686 -0.000240839 0.0
0.249783 -0.000234644 0.0
0.246474 -0.000230696 0.0
0.242065 -0.000269878 0.0
0.23849 -0.000219752 0.0
0 0 0.0
0.0338757 -1.13466e-05 0.0
0.0999948 -7.82709e-05 0.0
0.0695472 -4.66821e-05 0.0
0.20626 -0.000199091 0.0
0.222404 -0.000232022 0.0
0.189974 -0.000206846 0.0
0.168252 -0.000167118 0.0
0.143002 -0.000128253 0.0
0.124193 -9.46933e-05 0.0
0.0970827 -6.36465e-05 0.0
0 0 0.0
0.0360198 -1.0997e-05 0.0
0.0673133 -3.77166e-05 0.0
0.130336 -0.0001256 0.0
0.168483 -0.000167899 0.0
0.199473 -0.00021896 0.0
0.218379 -0.000256906 0.0
0.241992 -0.000270541 0.0
0.25 -0.000282385 0.0
0.247989 -0.000279099 0.0
0.229082 -0.000289827 0.0
0.244938 -0.000321253 0.0
0.248741 -0.000296288 0.0
0.234445 -0.000277164 0.0
0 0 0.0
0.0362344 -1.46282e-05 0.0
0.122661 -0.000128653 0.0
0.0712318 -5.52128e-05 0.0
0.208349 -0.000243399 0.0
0.225125 -0.000289582 0.0
0.198047 -0.000252661 0.0
0.177724 -0.000209296 0.0
0.146524 -0.000154423 0.0
0.11913 -0.000107957 0.0
0.0970495 -7.2191e-05 0.0
0 0 0.0
0.0349372 -1.23146e-05 0.0
0.0672756 -4.24655e-05 0.0
0.152303 -0.000175468 0.0
0.178019 -0.000214215 0.0
0.210117 -0.000270911 0.0
0.244858 -0.000321163 0.0
0.24942 -0.000329923 0.0
0.232226 -0.0003408 0.0
0.244198 -0.000365378 0.0
0.249988 -0.000389922 0.0
0.249132 -0.000346617 0.0
0.235912 -0.00033179 0.0
0.212965 -0.00033065 0.0
0 0 0.0
0.0371638 -1.7233e-05 0.0
0.141113 -0.000178992 0.0
0.0999607 -0.00010833 0.0
0.0666029 -5.38154e-05 0.0
0.213628 -0.000296009 0.0
0.186605 -0.000257735 0.0
0.165082 -0.000209815 0.0
0.122238 -0.000129425 0.0
0.0928636 -7.91774e-05 0.0
0 0 0.0
0.0349072 -1.37519e-05 0.0
0.0642239 -4.51048e-05 0.0
0.165599 -0.000224218 0.0
0.186969 -0.000263466 0.0
0.158126 -0.000234539 0.0
0.247091 -0.000375188 0.0
0.248691 -0.000431054 0.0
0.231053 -0.000382565 0.0
0.240527 -0.000408239 0.0
0.248758 -0.000430697 0.0
0.240202 -0.000381579 0.0
0.229255 -0.000374858 0.0
0.199184 -0.000323664 0.0
0.218636 -0.000386705 0.0
0 0 0.0
0.0346518 -1.69112e-05 0.0
0.126173 -0.000173946 0.0
0.0681819 -6.08038e-05 0.0
0.0988234 -0.000117956 0.0
0.208081 -0.000338387 0.0
0.189757 -0.000295123 0.0
0.168123 -0.000245056 0.0
0.140617 -0.000177688 0.0
0.0954059 -9.41669e-05 0.0
0 0 0.0
0.0332508 -1.40767e-05 0.0
0.0660525 -5.37038e-05 0.0
0.183226 -0.000305793 0.0
0.159266 -0.0002624 0.0
0.244898 -0.000444339 0.0
0.24966 -0.000487611 0.0
0.235962 -0.000447437 0.0
0.244859 -0.000472889 0.0
0.249378 -0.000486479 0.0
0.238619 -0.000449835 0.0
0.218418 -0.000406621 0.0
0.203107 -0.000377419 0.0
0.223372 -0.000441953 0.0
0 0 0.0
0.0478097 -3.37312e-05 0.0
0.127925 -0.000198261 0.0
0.0904284 -0.000110792 0.0
0.202606 -0.000363598 0.0
0.177964 -0.000299194 0.0
0.147884 -0.000224746 0.0
0.118716 -0.000147553 0.0
0.078023 -7.91119e-05 0.0
0 0 0.0
0.0342284 -1.6587e-05 0.0
0.187835 -0.000361866 0.0
0.160405 -0.000291885 0.0
0.246451 -0.000507467 0.0
0.25 -0.000546648 0.0
0.240141 -0.000516292 0.0
0.247577 -0.000568983 0.0
0.239858 -0.000515778 0.0
0.22729 -0.000477595 0.0
0.209726 -0.000425018 0.0
0.227726 -0.000501357 0.0
0.210292 -0.000442905 0.0
0 0 0.0
0.0478739 -3.76382e-05 0.0
0.12802 -0.000221275 0.0
0.0905112 -0.000121816 0.0
0.187167 -0.000359943 0.0
0.159614 -0.000282373 0.0
0.0471941 -3.31081e-05 0.0
0.127079 -0.000195618 0.0
0.0895845 -0.000108562 0.0
0 0 0.0
0.187911 -0.000406501 0.0
0.160495 -0.000326602 0.0
0.247419 -0.000575365 0.0
0.249999 -0.000615596 0.0
0.240173 -0.000581825 0.0
0.247595 -0.000639409 0.0
0.227243 -0.000537426 0.0
0.239825 -0.000580472 0.0
0.187091 -0.000404149 0.0
0.209664 -0.000477932 0.0
0.227766 -0.000550186 0.0
0.210358 -0.000497701 0.0
0 0 0.0
0.0479444 -4.12572e-05 0.0
0.128127 -0.000246002 0.0
0.0906234 -0.000136609 0.0
0.126983 -0.000219178 0.0
0.159527 -0.000316714 0.0
0.0471341 -3.67204e-05 0.0
0.0894939 -0.000120653 0.0
0 0 0.0
0.187998 -0.000453873 0.0
0.160598 -0.00036404 0.0
0.247402 -0.000645461 0.0
0.249999 -0.000689403 0.0
0.227811 -0.000603402 0.0
0.240225 -0.000680199 0.0
0.247613 -0.000715474 0.0
0.227198 -0.000588105 0.0
0.239789 -0.000649945 0.0
0.187026 -0.000438146 0.0
0.209592 -0.000534451 0.0
0.210432 -0.000556295 0.0
0 0 0.0
0.0480274 -4.58747e-05 0.0
0.128266 -0.000276699 0.0
0.0907378 -0.000150887 0.0
0.126894 -0.000239377 0.0
0.159428 -0.000352588 0.0
0.0470612 -4.08003e-05 0.0
0.0893937 -0.000133209 0.0
0 0 0.0
0.160711 -0.000403846 0.0
0.188121 -0.000517439 0.0
0.247381 -0.000720645 0.0
0.249998 -0.000768715 0.0
0.240259 -0.000742825 0.0
0.227895 -0.000697899 0.0
0.247635 -0.000796232 0.0
0.239747 -0.000723981 0.0
0.227149 -0.000643488 0.0
0.186933 -0.000487215 0.0
0.209512 -0.000594532 0.0
0.210514 -0.000619837 0.0
0 0 0.0
0.0481108 -5.06351e-05 0.0
0.12838 -0.000301736 0.0
0.090864 -0.000166454 0.0
0.126778 -0.000264935 0.0
0.159317 -0.000391426 0.0
0 0 0.0
0.0892818 -0.000147407 0.0
0.0469877 -4.48566e-05 0.0
0.188233 -0.000575804 0.0
0.160839 -0.000447713 0.0
0.227954 -0.000761233 0.0
0.247359 -0.000802271 0.0
0.249997 -0.000854799 0.0
0.247653 -0.000864543 0.0
0.240297 -0.000808442 0.0
0.2397 -0.000804294 0.0
0.227083 -0.00071526 0.0
0.1868 -0.000553468 0.0
0.209423 -0.000660338 0.0
0.210607 -0.000687909 0.0
0 0 0.0
0.0482056 -5.57773e-05 0.0
0.0909892 -0.000181301 0.0
0.128527 -0.000332863 0.0
0.126629 -0.000296929 0.0
0.159194 -0.000433293 0.0
0 0 0.0
0.0468995 -4.93958e-05 0.0
0.0891721 -0.000160556 0.0
0.188326 -0.000621361 0.0
0.160981 -0.000495564 0.0
0.228016 -0.000829457 0.0
0.240368 -0.00093472 0.0
0.247333 -0.000890914 0.0
0.249996 -0.000947724 0.0
0.247673 -0.000936593 0.0
0.239648 -0.000891273 0.0
0.227009 -0.000793183 0.0
0.18671 -0.000597409 0.0
0.209324 -0.000730464 0.0
0.21071 -0.000762929 0.0
0 0 0.0
0.048311 -6.11508e-05 0.0
0.128717 -0.000373474 0.0
0.0911582 -0.000202266 0.0
0.126506 -0.00032306 0.0
0.159057 -0.000478758 0.0
0.0468113 -5.37621e-05 0.0
0 0 0.0
0.0890243 -0.000178518 0.0
0.161139 -0.000547864 0.0
0.188496 -0.000704275 0.0
0.228133 -0.00095201 0.0
0.240428 -0.0010373 0.0
0.247699 -0.00103843 0.0
0.24729 -0.00103054 0.0
0.249994 -0.00105091 0.0
0.239589 -0.000988031 0.0
0.226897 -0.000906911 0.0
0.186547 -0.000675685 0.0
0.209213 -0.00080812 0.0
0.210824 -0.000844606 0.0
0 0 0.0
0.0484256 -6.68046e-05 0.0
0.0913278 -0.000221343 0.0
0.161314 -0.000603465 0.0
0.128873 -0.000404867 0.0
0.126348 -0.000356306 0.0
0.158936 -0.000518085 0.0
0.0467084 -5.96312e-05 0.0
0 0 0.0
0.0888887 -0.000195224 0.0
0.210932 -0.000920844 0.0
0.188613 -0.00076116 0.0
0.240479 -0.0011244 0.0
0.228229 -0.00105704 0.0
0.247744 -0.00120024 0.0
0.249992 -0.00116204 0.0
0.247263 -0.00111392 0.0
0.239524 -0.00109123 0.0
0.226818 -0.000983953 0.0
0.186436 -0.000727447 0.0
0.158738 -0.000583202 0.0
0.209091 -0.000891057 0.0
0 0 0.0
0.0914977 -0.000241355 0.0
0.0485602 -7.38838e-05 0.0
0.161469 -0.000654872 0.0
0.129105 -0.000454221 0.0
0.126174 -0.000393469 0.0
0 0 0.0
0.046595 -6.59354e-05 0.0
0.088708 -0.000217742 0.0
0.21105 -0.00100247 0.0
0.188823 -0.000865479 0.0
0.240534 -0.00121857 0.0
0.228337 -0.00117159 0.0
0.247769 -0.0013006 0.0
0.249987 -0.0012851 0.0
0.247235 -0.00120569 0.0
0.158591 -0.000628268 0.0
0.208976 -0.000967261 0.0
0.23945 -0.00120278 0.0
0.226733 -0.00106768 0.0
0.186278 -0.000802346 0.0
0 0 0.0
0.0486921 -8.01239e-05 0.0
0.091701 -0.000264447 0.0
0.161682 -0.000722999 0.0
0.129334 -0.000501116 0.0
0.0885245 -0.000240121 0.0
0.125951 -0.000440693 0.0
0 0 0.0
0.0464638 -7.35504e-05 0.0
0.211202 -0.00111032 0.0
0.189016 -0.000959459 0.0
0.240609 -0.00134874 0.0
0.228456 -0.0012991 0.0
0.247796 -0.00140837 0.0
0.249983 -0.00142125 0.0
0.247172 -0.00138812 0.0
0.158395 -0.000691656 0.0
0.239369 -0.00132684 0.0
0.208852 -0.00104676 0.0
0.22658 -0.00121766 0.0
0.186057 -0.000907412 0.0
0 0 0.0
0.0919512 -0.000293508 0.0
0.0488431 -8.75109e-05 0.0
0.161968 -0.000815963 0.0
0.129586 -0.000553462 0.0
0.0883444 -0.000263224 0.0
0.125737 -0.000487647 0.0
0 0 0.0
0.0463234 -8.1904e-05 0.0
0.189229 -0.00106599 0.0
0.211371 -0.0012322 0.0
0.240691 -0.00149591 0.0
0.247834 -0.00155551 0.0
0.228586 -0.00144076 0.0
0.249975 -0.00156746 0.0
0.247122 -0.00153439 0.0
0.239278 -0.00145932 0.0
0.249538 -0.00168669 0.0
0.158177 -0.000760732 0.0
0.226449 -0.00134037 0.0
0.208641 -0.00118356 0.0
0.185911 -0.000974051 0.0
0 0 0.0
0.0921812 -0.000320802 0.0
0.0490206 -9.68323e-05 0.0
0.162184 -0.000888237 0.0
0.129868 -0.00061289 0.0
0.0881251 -0.000291357 0.0
0.125538 -0.000530464 0.0
0 0 0.0
0.0461771 -9.08302e-05 0.0
0.189467 -0.00118544 0.0
0.211559 -0.00136972 0.0
0.240775 -0.001656 0.0
0.22873 -0.00160255 0.0
0.247887 -0.00180356 0.0
0.249145 -0.00167693 0.0
0.243759 -0.0016191 0.0
0.233387 -0.00151482 0.0
0.249955 -0.00182132 0.0
0.15794 -0.000835161 0.0
0.218033 -0.00136947 0.0
0.203238 -0.00123946 0.0
0.185647 -0.00109181 0.0
0 0 0.0
0.092459 -0.000355236 0.0
0.0492041 -0.000105845 0.0
0.162479 -0.000990037 0.0
0.130183 -0.00068253 0.0
0.125245 -0.00059272 0.0
0.0878831 -0.000322586 0.0
0 0 0.0
0.0459985 -0.000100834 0.0
0.189733 -0.00132307 0.0
0.211766 -0.00152587 0.0
0.247921 -0.00199492 0.0
0.228885 -0.00178321 0.0
0.240874 -0.00183923 0.0
0.247026 -0.0017859 0.0
0.239105 -0.00169875 0.0
0.226201 -0.00156379 0.0
0.249931 -0.00201098 0.0
0.157681 -0.000915643 0.0
0.208321 -0.00138361 0.0
0.18541 -0.00119478 0.0
0 0 0.0
0.049399 -0.000116452 0.0
0.0927705 -0.000397222 0.0
0.130481 -0.000750831 0.0
0.190027 -0.0014794 0.0
0.162812 -0.00110842 0.0
0.124965 -0.000650332 0.0
0.0876172 -0.000356157 0.0
0.045807 -0.000112049 0.0
0 0 0.0
0.229024 -0.00195189 0.0
0.211995 -0.00170657 0.0
0.24795 -0.00216223 0.0
0.240971 -0.00204711 0.0
0.226026 -0.00171089 0.0
0.246947 -0.00196547 0.0
0.238975 -0.00186444 0.0
0.249903 -0.0022204 0.0
0.185155 -0.00130032 0.0
0.157343 -0.00101309 0.0
0.208035 -0.00155021 0.0
0 0 0.0
0.0496273 -0.000131632 0.0
0.0931606 -0.000452576 0.0
0.130872 -0.000845267 0.0
0.190269 -0.00161878 0.0
0.163261 -0.00128384 0.0
0.124663 -0.000708719 0.0
0.0872994 -0.000393761 0.0
0.0455985 -0.000123157 0.0
0 0 0.0
0.124334 -0.000768416 0.0
0.229171 -0.00213205 0.0
0.212326 -0.00198568 0.0
0.241116 -0.00238333 0.0
0.247975 -0.00234056 0.0
0.225758 -0.00192438 0.0
0.23883 -0.00204142 0.0
0.246856 -0.00216379 0.0
0.249856 -0.00245233 0.0
0.184875 -0.00140938 0.0
0.157032 -0.0011002 0.0
0.207789 -0.00168835 0.0
0 0 0.0
0.0498857 -0.000148857 0.0
0.093566 -0.000515928 0.0
0.131313 -0.000961603 0.0
0.190626 -0.00182391 0.0
0.163691 -0.00145895 0.0
0.0453656 -0.000136324 0.0
0.0869794 -0.000429648 0.0
0 0 0.0
0.124037 -0.000814126 0.0
0.229362 -0.00239199 0.0
0.21261 -0.00223734 0.0
0.241222 -0.00265859 0.0
0.247997 -0.00260119 0.0
0.225565 -0.00206602 0.0
0.238663 -0.00223231 0.0
0.249798 -0.00270978 0.0
0.246691 -0.00248248 0.0
0.184644 -0.0014892 0.0
0.156695 -0.00118259 0.0
0.207516 -0.00182631 0.0
0 0 0.0
0.050179 -0.000170667 0.0
0.0940288 -0.000592227 0.0
0.131892 -0.00112357 0.0
0.191119 -0.00213358 0.0
0.212917 -0.00253119 0.0
0.164168 -0.00166907 0.0
0.0451305 -0.000146842 0.0
0.0866396 -0.000462523 0.0
0 0 0.0
0.123665 -0.000864995 0.0
0.229634 -0.00279202 0.0
0.241305 -0.00291052 0.0
0.24801 -0.00289179 0.0
0.249735 -0.00292378 0.0
0.225358 -0.00220788 0.0
0.23846 -0.00244238 0.0
0.246543 -0.0027263 0.0
0.156332 -0.00126046 0.0
0.184314 -0.00159742 0.0
0.207207 -0.00196757 0.0
0 0 0.0
0.0505425 -0.000199469 0.0
0.0945673 -0.000690513 0.0
0.132476 -0.00130226 0.0
0.191451 -0.00235823 0.0
0.213245 -0.00286341 0.0
0.164705 -0.00191809 0.0
0.0448642 -0.000157113 0.0
0.086278 -0.000491627 0.0
0 0 0.0
0.15602 -0.00131011 0.0
0.0859028 -0.000512613 0.0
0.123209 -0.000912218 0.0
0.229847 -0.00316076 0.0
0.241381 -0.00317611 0.0
0.247997 -0.00337467 0.0
0.249663 -0.00314827 0.0
0.246409 -0.00293382 0.0
0.22507 -0.00238774 0.0
0.23813 -0.00275679 0.0
0.183852 -0.0017233 0.0
0.206917 -0.00209342 0.0
0.230031 -0.00348527 0.0
0 0 0.0
0.0509455 -0.000233832 0.0
0.133144 -0.00151874 0.0
0.0951909 -0.000811385 0.0
0.213603 -0.00326046 0.0
0.192052 -0.00279011 0.0
0.165306 -0.00221398 0.0
0.044572 -0.000164388 0.0
0 0 0.0
0.183541 -0.00179747 0.0
0.155601 -0.00136955 0.0
0.122788 -0.000945402 0.0
0.0442733 -0.000174433 0.0
0.0855108 -0.000529321 0.0
0.241475 -0.00356082 0.0
0.247968 -0.00367158 0.0
0.24953 -0.00348062 0.0
0.249408 -0.00375826 0.0
0.246246 -0.00315109 0.0
0.224732 -0.00257958 0.0
0.237826 -0.00300181 0.0
0.206591 -0.00220779 0.0
0.230202 -0.00385099 0.0
0.0513984 -0.000274759 0.0
0 0 0.0
0.133786 -0.00173201 0.0
0.0959153 -0.00095327 0.0
0.213978 -0.00371315 0.0
0.192449 -0.00309799 0.0
0.165982 -0.00256565 0.0
0 0 0.0
0.183095 -0.00187962 0.0
0.155056 -0.00141981 0.0
0.122421 -0.000954699 0.0
0.0439895 -0.000178349 0.0
0.0851127 -0.000538236 0.0
0.241572 -0.0041892 0.0
0.247926 -0.00398603 0.0
0.249253 -0.00404917 0.0
0.245879 -0.00359297 0.0
0.224349 -0.00277227 0.0
0.237484 -0.0032598 0.0
0.206026 -0.00239021 0.0
0.230428 -0.00436058 0.0
0 0 0.0
0.0519558 -0.000327619 0.0
0.134643 -0.00202854 0.0
0.0966807 -0.00110853 0.0
0.166738 -0.00297209 0.0
0.214376 -0.00423946 0.0
0.193173 -0.00368294 0.0
0 0 0.0
0 0 0.0
0.182589 -0.00195675 0.0
0.154561 -0.00145005 0.0
0.121973 -0.000961073 0.0
0.0847164 -0.000539653 0.0
0.0436879 -0.000179662 0.0
0.241613 -0.00470615 0.0
0.247826 -0.00444701 0.0
0.237156 -0.00348112 0.0
0.249006 -0.00447631 0.0
0.24554 -0.00394357 0.0
0.223895 -0.0029771 0.0
0.205511 -0.00252492 0.0
0.241622 -0.00517427 0.0
0.230626 -0.00493969 0.0
0.0526146 -0.000387887 0.0
0.0976593 -0.00130364 0.0
0.135629 -0.00238011 0.0
0.167414 -0.00335614 0.0
0.214797 -0.00483514 0.0
0.193642 -0.00410622 0.0
0 0 0.0
0 0 0.0
0.154141 -0.00145616 0.0
0.181887 -0.00203081 0.0
0.0843643 -0.00053045 0.0
0.121444 -0.000952093 0.0
0.0433799 -0.00018087 0.0
0.247612 -0.00518886 0.0
0.24868 -0.00495484 0.0
0.204934 -0.00265603 0.0
0.236782 -0.00370712 0.0
0.24524 -0.00423752 0.0
0.223173 -0.00325941 0.0
0.241611 -0.00566416 0.0
0.230901 -0.00584263 0.0
0.215228 -0.00551999 0.0
0.0534433 -0.000464215 0.0
0.0988031 -0.00154325 0.0
0.136944 -0.00285229 0.0
0.168349 -0.00388672 0.0
0.194502 -0.00489682 0.0
0 0 0.0
0 0 0.0
0.15347 -0.0014577 0.0
0.181244 -0.00208894 0.0
0.0839523 -0.00051382 0.0
0.12098 -0.000934056 0.0
0.0430749 -0.000177997 0.0
0.244885 -0.00455182 0.0
0.248285 -0.00547004 0.0
0.247368 -0.0057975 0.0
0.204273 -0.002787 0.0
0.236241 -0.00401654 0.0
0.222527 -0.0034934 0.0
0.180542 -0.00213953 0.0
0.241505 -0.0066583 0.0
0 0 0.0
0.231049 -0.0066305 0.0
0.195255 -0.00564236 0.0
0.215668 -0.00628679 0.0
0.0543386 -0.000549347 0.0
0.138074 -0.00326957 0.0
0.100291 -0.00186003 0.0
0.169612 -0.00465717 0.0
0 0 0.0
0 0 0.0
0 0 0.0
0 0 0.0
0 0 0.0
0.0428076 -0.000172766 0.0
0.120514 -0.000910755 0.0
0.152865 -0.00145527 0.0
0.0836121 -0.00050103 0.0
0.244346 -0.00497562 0.0
0.247789 -0.00604583 0.0
0.247068 -0.00646567 0.0
0.221923 -0.00367536 0.0
0.203516 -0.00292029 0.0
0.235314 -0.00448399 0.0
0.202802 -0.00303475 0.0
0.179957 -0.00217342 0.0
0.24134 -0.00748275 0.0
0.231181 -0.00748971 0.0
0 0 0.0
9.52632e-05 -3.88763e-05 0.0
0 0 0.0
-0.000348879 0.00199714 0.0
0.216127 -0.00716717 0.0
0.19587 -0.00625887 0.0
0.0555026 -0.000663836 0.0
0.139565 -0.00381937 0.0
0.101879 -0.00220112 0.0
0.170822 -0.00540687 0.0
0 0 0.0
0 0 0.0
0 0 0.0
-0.000258689 0.00107212 0.0
-2.12625e-05 -0.000113714 0.0
3.7436e-05 -5.66623e-05 0.0
0 0 0.0
0.0425251 -0.000169805 0.0
0.120114 -0.000887209 0.0
0.152225 -0.00145068 0.0
0.0832239 -0.000484683 0.0
0.243708 -0.0054499 0.0
0.247188 -0.00667618 0.0
0.24667 -0.00719944 0.0
0.221242 -0.00387963 0.0
0.234682 -0.00478862 0.0
0.20201 -0.00315034 0.0
0.178908 -0.00223932 0.0
0.241116 -0.00838348 0.0
0.234185 -0.00840035 0.0
0.224498 -0.00820664 0.0
0 0 0.0
0.000132554 2.2389e-06 0.0
0 0 0.0
0 0 0.0
-0.00123925 0.00453092 0.0
-0.00118818 0.00295697 0.0
0.212023 -0.00783406 0.0
0.196729 -0.00718586 0.0
0.103542 -0.00256492 0.0
0.0567607 -0.000799323 0.0
0.141262 -0.00447003 0.0
0.172152 -0.00626608 0.0
0 0 0.0
-0.000416564 0.000511102 0.0
-0.000801725 0.0015079 0.0
-0.000251525 0.000182342 0.0
-0.00020581 0.000202582 0.0
0 0 0.0
0.0422529 -0.000167213 0.0
0.119644 -0.000865082 0.0
0.151554 -0.00144249 0.0
0.0828783 -0.000472428 0.0
0.242947 -0.00596246 0.0
0.24647 -0.0073612 0.0
0.246167 -0.0080058 0.0
0.219959 -0.00423921 0.0
0.233972 -0.00509652 0.0
0.20097 -0.0033107 0.0
0.150852 -0.00145897 0.0
0.177972 -0.00231171 0.0
0.240866 -0.00916354 0.0
0.231286 -0.00915735 0.0
0.216889 -0.00894089 0.0
0 0 0.0
-0.000110374 0.000124275 0.0
0 0 0.0
0 0 0.0
0 0 0.0
0 0 0.0
-0.00214125 0.0031518 0.0
-0.000347983 0.00391833 0.0
-0.00126897 0.00589352 0.0
-0.00294769 0.00773852 0.0
-0.00248137 0.00527093 0.0
0 0 0.0
-6.52989e-05 0.00588437 0.0
0.19787 -0.00855156 0.0
0.17332 -0.00707433 0.0
0 0 0.0
0.0584251 -0.000989082 0.0
0.105671 -0.00306174 0.0
0.143511 -0.00541395 0.0
0 0 0.0
0 0 0.0
-0.00127945 0.00150305 0.0