# vtk DataFile Version 3.0
Mesh NS-CD Problem
ASCII
DATASET UNSTRUCTURED_GRID
POINTS 10839 float
-2 0.3 0.0
-2 0.4 0.0
-2 0.35 0.0
-2 0.45 0.0
-2 0.5 0.0
-2 0.55 0.0
-2 0 0.0
-2 0.05 0.0
-2 0.85 0.0
-2 0.9 0.0
-2 0.1 0.0
-2 0.15 0.0
-2 0.25 0.0
-2 0.2 0.0
-1.96653 0.266667 0.0
-1.96524 0.415385 0.0
-1.96485 0.315 0.0
-1.96348 0.363636 0.0
-1.96414 0.464286 0.0
-2 0.6 0.0
-1.96538 0.584615 0.0
-1.96538 0.538462 0.0
-1.94979 0 0.0
-1.96653 0.0666666 0.0
-1.93306 0.0333333 0.0
-2 0.8 0.0
-2 0.75 0.0
-2 0.7 0.0
-2 0.65 0.0
-1.96249 0.7375 0.0
-1.96666 0.833333 0.0
-2 1 0.0
-2 0.95 0.0
-1.96249 0.8875 0.0
-1.96666 0.933333 0.0
-1.96234 0.1125 0.0
-1.96653 0.166667 0.0
-1.93724 0.225 0.0
-1.92971 0.28 0.0
-1.93048 0.380769 0.0
-1.93048 0.423077 0.0
-1.89958 0.3375 0.0
-1.9292 0.484203 0.0
-1.92117 0.530907 0.0
-1.96363 0.636364 0.0
-1.93076 0.576923 0.0
-1.89958 0 0.0
-1.88703 0.0375 0.0
-1.90963 0.08 0.0
-1.86611 0.0666666 0.0
-1.93749 0.775 0.0
-1.93635 0.672727 0.0
-1.92999 0.72 0.0
-1.93332 0.866667 0.0
-1.92856 0.821429 0.0
-1.94999 1 0.0
-1.92499 0.9625 0.0
-1.92499 0.925 0.0
-1.89998 0.9 0.0
-1.89958 0.125 0.0
-1.92827 0.178571 0.0
-1.89958 0.233333 0.0
-1.89045 0.290909 0.0
-1.86096 0.311538 0.0
-1.89241 0.392857 0.0
-1.89334 0.448489 0.0
-1.85655 0.357143 0.0
-1.89614 0.653846 0.0
-1.89427 0.504121 0.0
-1.8952 0.559753 0.0
-1.89614 0.615385 0.0
-1.84937 0 0.0
-1.83264 0.0333333 0.0
-1.85655 0.107143 0.0
-1.81172 0.075 0.0
-1.89998 0.766667 0.0
-1.89089 0.709091 0.0
-1.87498 0.85 0.0
-1.85998 0.79 0.0
-1.88748 0.8125 0.0
-1.89998 1 0.0
-1.88748 0.9625 0.0
-1.86664 0.933333 0.0
-1.85712 0.892857 0.0
-1.87448 0.15 0.0
-1.86611 0.194444 0.0
-1.83264 0.133333 0.0
-1.83264 0.2625 0.0
-1.82068 0.321429 0.0
-1.85664 0.404762 0.0
-1.85674 0.452381 0.0
-1.85683 0.5 0.0
-1.81184 0.375 0.0
-1.85712 0.642857 0.0
-1.85693 0.547619 0.0
-1.85702 0.595238 0.0
-1.79917 0 0.0
-1.78482 0.0357143 0.0
-1.79917 0.116667 0.0
-1.76569 0.0666666 0.0
-1.85452 0.745455 0.0
-1.82689 0.692308 0.0
-1.81815 0.781818 0.0
-1.82497 0.825 0.0
-1.84997 1 0.0
-1.8333 0.958333 0.0
-1.81247 0.8875 0.0
-1.81247 0.925 0.0
-1.81742 0.218182 0.0
-1.82427 0.175 0.0
-1.77634 0.145455 0.0
-1.79144 0.242308 0.0
-1.78482 0.285714 0.0
-1.77469 0.332653 0.0
-1.81215 0.529762 0.0
-1.81194 0.422619 0.0
-1.81203 0.470238 0.0
-1.76714 0.392857 0.0
-1.81234 0.625 0.0
-1.79732 0.571429 0.0
-1.74896 0 0.0
-1.73222 0.0333333 0.0
-1.75398 0.105 0.0
-1.71883 0.07 0.0
-1.79227 0.730769 0.0
-1.78007 0.679121 0.0
-1.75765 0.769231 0.0
-1.78178 0.818182 0.0
-1.78996 0.86 0.0
-1.79996 1 0.0
-1.78568 0.964286 0.0
-1.76663 0.922222 0.0
-1.76569 0.1875 0.0
-1.73222 0.15 0.0
-1.74896 0.25 0.0
-1.73714 0.304762 0.0
-1.76743 0.537202 0.0
-1.72869 0.343878 0.0
-1.76732 0.485119 0.0
-1.76723 0.440476 0.0
-1.72243 0.410714 0.0
-1.76757 0.607143 0.0
-1.69875 0 0.0
-1.68369 0.035 0.0
-1.69875 0.1125 0.0
-1.66528 0.075 0.0
-1.74341 0.708974 0.0
-1.73324 0.665934 0.0
-1.70441 0.74478 0.0
-1.71423 0.785714 0.0
-1.72303 0.826923 0.0
-1.74541 0.854545 0.0
-1.74541 0.890909 0.0
-1.74996 1 0.0
-1.73745 0.9625 0.0
-1.71359 0.927273 0.0
-1.68716 0.153846 0.0
-1.7131 0.214286 0.0
-1.70725 0.275 0.0
-1.69712 0.321939 0.0
-1.72279 0.589286 0.0
-1.72261 0.5 0.0
-1.7227 0.544643 0.0
-1.6827 0.355102 0.0
-1.67773 0.428571 0.0
-1.70763 0.464286 0.0
-1.70369 0.62449 0.0
-1.64854 0 0.0
-1.63181 0.0375 0.0
-1.64137 0.142857 0.0
-1.61764 0.0769231 0.0
-1.69458 0.703846 0.0
-1.67471 0.657437 0.0
-1.66143 0.727637 0.0
-1.67125 0.768571 0.0
-1.67851 0.821429 0.0
-1.68841 0.861538 0.0
-1.70904 0.890909 0.0
-1.69995 1 0.0
-1.68176 0.963636 0.0
-1.67267 0.927273 0.0
-1.65427 0.187143 0.0
-1.66718 0.231429 0.0
-1.66554 0.3 0.0
-1.67802 0.571429 0.0
-1.67792 0.523809 0.0
-1.6367 0.366327 0.0
-1.63682 0.423469 0.0
-1.62568 0.502976 0.0
-1.6629 0.470238 0.0
-1.65254 0.618367 0.0
-1.6059 0.307143 0.0
-1.59833 0 0.0
-1.58288 0.0384615 0.0
-1.60563 0.169643 0.0
-1.58179 0.112271 0.0
-1.56964 0.0714286 0.0
-1.64574 0.690385 0.0
-1.62827 0.751429 0.0
-1.63371 0.791071 0.0
-1.64279 0.857143 0.0
-1.65378 0.896154 0.0
-1.64994 1 0.0
-1.6363 0.963636 0.0
-1.61916 0.930769 0.0
-1.61345 0.209107 0.0
-1.62126 0.248571 0.0
-1.56989 0.196429 0.0
-1.63324 0.553571 0.0
-1.58846 0.535714 0.0
-1.59408 0.361905 0.0
-1.59161 0.402211 0.0
-1.58832 0.464286 0.0
-1.61504 0.598581 0.0
-1.59683 0.64359 0.0
-1.57899 0.274107 0.0
-1.56176 0.322381 0.0
-1.54812 0 0.0
-1.53378 0.0357143 0.0
-1.54593 0.147619 0.0
-1.53385 0.0732143 0.0
-1.53393 0.110714 0.0
-1.58522 0.704286 0.0
-1.58709 0.745 0.0
-1.58896 0.785714 0.0
-1.60695 0.830357 0.0
-1.60707 0.892857 0.0
-1.59993 1 0.0
-1.58454 0.965385 0.0
-1.57135 0.928571 0.0
-1.55209 0.241071 0.0
-1.5291 0.198214 0.0
-1.56936 0.570918 0.0
-1.54369 0.517857 0.0
-1.5464 0.380952 0.0
-1.54564 0.427721 0.0
-1.54488 0.47449 0.0
-1.55026 0.606122 0.0
-1.54222 0.677143 0.0
-1.52943 0.282857 0.0
-1.52143 0.33619 0.0
-1.49792 0 0.0
-1.49802 0.05 0.0
-1.49822 0.15 0.0
-1.49312 0.1 0.0
-1.5423 0.717143 0.0
-1.54419 0.767857 0.0
-1.54727 0.819048 0.0
-1.57122 0.861905 0.0
-1.53553 0.914286 0.0
-1.54992 1 0.0
-1.53563 0.964286 0.0
-1.49842 0.25 0.0
-1.48831 0.2 0.0
-1.5214 0.558929 0.0
-1.49891 0.5 0.0
-1.49871 0.4 0.0
-1.47631 0.45 0.0
-1.49911 0.6 0.0
-1.49921 0.65 0.0
-1.49931 0.7 0.0
-1.48111 0.35 0.0
-1.48351 0.3 0.0
-1.44771 0 0.0
-1.44782 0.05 0.0
-1.44804 0.15 0.0
-1.44793 0.1 0.0
-1.49941 0.75 0.0
-1.49951 0.8 0.0
-1.49981 0.95 0.0
-1.49961 0.85 0.0
-1.49971 0.9 0.0
-1.49991 1 0.0
-1.44826 0.25 0.0
-1.43815 0.2 0.0
-1.47151 0.55 0.0
-1.44881 0.5 0.0
-1.44859 0.4 0.0
-1.42619 0.45 0.0
-1.44913 0.65 0.0
-1.44902 0.6 0.0
-1.44935 0.75 0.0
-1.44924 0.7 0.0
-1.43972 0.35 0.0
-1.43336 0.3 0.0
-1.3975 0 0.0
-1.39762 0.05 0.0
-1.39786 0.15 0.0
-1.39274 0.1 0.0
-1.44957 0.85 0.0
-1.44946 0.8 0.0
-1.4523 0.95 0.0
-1.44968 0.9 0.0
-1.4499 1 0.0
-1.3981 0.25 0.0
-1.38798 0.2 0.0
-1.42141 0.55 0.0
-1.3987 0.5 0.0
-1.39834 0.35 0.0
-1.37845 0.4 0.0
-1.37607 0.45 0.0
-1.40784 0.65 0.0
-1.39894 0.6 0.0
-1.41185 0.75 0.0
-1.39918 0.7 0.0
-1.38322 0.3 0.0
-1.34729 0 0.0
-1.34492 0.05 0.0
-1.34018 0.15 0.0
-1.34255 0.1 0.0
-1.40707 0.85 0.0
-1.39941 0.8 0.0
-1.39977 0.95 0.0
-1.39965 0.9 0.0
-1.39989 1 0.0
-1.33781 0.2 0.0
-1.33544 0.25 0.0
-1.37131 0.55 0.0
-1.34859 0.5 0.0
-1.33833 0.4 0.0
-1.3307 0.35 0.0
-1.32595 0.45 0.0
-1.34885 0.6 0.0
-1.36655 0.65 0.0
-1.36179 0.75 0.0
-1.34911 0.7 0.0
-1.33307 0.3 0.0
-1.29708 0 0.0
-1.29722 0.05 0.0
-1.2975 0.15 0.0
-1.29236 0.1 0.0
-1.35703 0.85 0.0
-1.34937 0.8 0.0
-1.34988 1 0.0
-1.34962 0.9 0.0
-1.35226 0.95 0.0
-1.28528 0.25 0.0
-1.28764 0.2 0.0
-1.28931 0.35 0.0
-1.32121 0.55 0.0
-1.29848 0.5 0.0
-1.28709 0.45 0.0
-1.2982 0.4 0.0
-1.29876 0.6 0.0
-1.31647 0.65 0.0
-1.29918 0.75 0.0
-1.29904 0.7 0.0
-1.28292 0.3 0.0
-1.24687 0 0.0
-1.24702 0.05 0.0
-1.24717 0.1 0.0
-1.24732 0.15 0.0
-1.29946 0.85 0.0
-1.29932 0.8 0.0
-1.29987 1 0.0
-1.29974 0.95 0.0
-1.30462 0.9 0.0
-1.24762 0.25 0.0
-1.23747 0.2 0.0
-1.24792 0.35 0.0
-1.22807 0.4 0.0
-1.27111 0.55 0.0
-1.24837 0.5 0.0
-1.24822 0.45 0.0
-1.24867 0.6 0.0
-1.26639 0.65 0.0
-1.26167 0.75 0.0
-1.24897 0.7 0.0
-1.23277 0.3 0.0
-1.19667 0 0.0
-1.19683 0.05 0.0
-1.18964 0.15 0.0
-1.19198 0.1 0.0
-1.25695 0.85 0.0
-1.24927 0.8 0.0
-1.25223 0.95 0.0
-1.24987 1 0.0
-1.24957 0.9 0.0
-1.1873 0.2 0.0
-1.18496 0.25 0.0
-1.18028 0.35 0.0
-1.17794 0.4 0.0
-1.1981 0.45 0.0
-1.19842 0.55 0.0
-1.19826 0.5 0.0
-1.19858 0.6 0.0
-1.19874 0.65 0.0
-1.19906 0.75 0.0
-1.1989 0.7 0.0
-1.18262 0.3 0.0
-1.14646 0 0.0
-1.14663 0.05 0.0
-1.1418 0.1 0.0
-1.13713 0.2 0.0
-1.14697 0.15 0.0
-1.20691 0.85 0.0
-1.20926 0.8 0.0
-1.20221 0.95 0.0
-1.19986 1 0.0
-1.20456 0.9 0.0
-1.13997 0.3 0.0
-1.14731 0.25 0.0
-1.13781 0.4 0.0
-1.13014 0.35 0.0
-1.12548 0.45 0.0
-1.14815 0.5 0.0
-1.15962 0.55 0.0
-1.14849 0.6 0.0
-1.15745 0.65 0.0
-1.16155 0.75 0.0
-1.14917 0.8 0.0
-1.14883 0.7 0.0
-1.09625 0 0.0
-1.09661 0.1 0.0
-1.09393 0.05 0.0
-1.09697 0.2 0.0
-1.08929 0.15 0.0
-1.15687 0.85 0.0
-1.14985 1 0.0
-1.15219 0.95 0.0
-1.14951 0.9 0.0
-1.09733 0.3 0.0
-1.08465 0.25 0.0
-1.09769 0.4 0.0
-1.08 0.35 0.0
-1.08661 0.45 0.0
-1.09804 0.5 0.0
-1.12082 0.55 0.0
-1.10916 0.8 0.0
-1.10629 0.7 0.0
-1.0984 0.6 0.0
-1.11616 0.65 0.0
-1.11149 0.75 0.0
-1.04604 0 0.0
-1.04623 0.05 0.0
-1.04642 0.1 0.0
-1.0468 0.2 0.0
-1.03911 0.15 0.0
-1.09948 0.9 0.0
-1.0993 0.85 0.0
-1.09984 1 0.0
-1.09966 0.95 0.0
-1.04718 0.3 0.0
-1.03449 0.25 0.0
-1.04756 0.4 0.0
-1.02986 0.35 0.0
-1.04775 0.45 0.0
-1.04794 0.5 0.0
-1.04813 0.55 0.0
-1.05911 0.8 0.0
-1.04831 0.6 0.0
-1.06376 0.7 0.0
-1.0485 0.65 0.0
-1.04888 0.75 0.0
-0.995833 0 0.0
-0.991231 0.1 0.0
-0.996033 0.05 0.0
-0.986629 0.2 0.0
-0.98893 0.15 0.0
-1.05447 0.9 0.0
-1.04926 0.85 0.0
-1.04983 1 0.0
-1.04964 0.95 0.0
-0.984328 0.25 0.0
-0.99703 0.3 0.0
-0.997429 0.4 0.0
-0.997628 0.45 0.0
-0.979726 0.35 0.0
-0.997827 0.5 0.0
-0.998027 0.55 0.0
-0.998226 0.6 0.0
-0.961416 0.475 0.0
-1.00907 0.8 0.0
-0.998426 0.65 0.0
-0.998625 0.7 0.0
-1.01138 0.75 0.0
-0.945625 0 0.0
-0.946044 0.1 0.0
-0.943334 0.05 0.0
-0.946463 0.2 0.0
-0.938752 0.15 0.0
-1.00444 0.9 0.0
-1.00675 0.85 0.0
-0.999821 1 0.0
-1.00213 0.95 0.0
-0.93417 0.25 0.0
-0.946881 0.3 0.0
-0.9473 0.4 0.0
-0.929588 0.35 0.0
-0.925005 0.45 0.0
-0.960371 0.525 0.0
-0.959325 0.575 0.0
-0.958279 0.625 0.0
-0.922714 0.5 0.0
-0.959017 0.8 0.0
-0.957233 0.675 0.0
-0.952999 0.7125 0.0
-0.948766 0.75 0.0
-0.895417 0 0.0
-0.895855 0.1 0.0
-0.893136 0.05 0.0
-0.896294 0.2 0.0
-0.888573 0.15 0.0
-0.949184 0.85 0.0
-0.954415 0.9 0.0
-0.949812 1 0.0
-0.949603 0.95 0.0
-0.884011 0.25 0.0
-0.896733 0.3 0.0
-0.874887 0.45 0.0
-0.879449 0.35 0.0
-0.897171 0.4 0.0
-0.920423 0.55 0.0
-0.918132 0.6 0.0
-0.915841 0.65 0.0
-0.872606 0.5 0.0
-0.908968 0.8 0.0
-0.91355 0.7 0.0
-0.898707 0.75 0.0
-0.845208 0 0.0
-0.845438 0.05 0.0
-0.845667 0.1 0.0
-0.845896 0.15 0.0
-0.833853 0.25 0.0
-0.846126 0.2 0.0
-0.899146 0.85 0.0
-0.904386 0.9 0.0
-0.899584 0.95 0.0
-0.899804 1 0.0
-0.838062 0.35 0.0
[...]
POINT_DATA 10839
VECTORS Velocity float
0.21 0 0.0
0.24 0 0.0
0.2275 0 0.0
0.2475 0 0.0
0.25 0 0.0
0.2475 0 0.0
0 0 0.0
0.0475 0 0.0
0.1275 0 0.0
0.09 0 0.0
0.09 0 0.0
0.1275 0 0.0
0.1875 0 0.0
0.16 0 0.0
0.195557 -2.10174e-05 0.0
0.242841 -2.80336e-05 0.0
0.215776 -2.48812e-05 0.0
0.231406 -2.78484e-05 0.0
0.248725 -2.95006e-05 0.0
0.24 0 0.0
0.24284 -2.70384e-05 0.0
0.24852 -2.8064e-05 0.0
0 0 0.0
0.0622237 -3.72545e-06 0.0
0.0322264 -2.45223e-06 0.0
0.16 0 0.0
0.1875 0 0.0
0.21 0 0.0
0.2275 0 0.0
0.193592 -2.21728e-05 0.0
0.138888 -1.25802e-05 0.0
0 0 0.0
0.0475 0 0.0
0.0998419 -8.92139e-06 0.0
0.0622208 -3.74531e-06 0.0
0.0998459 -9.61196e-06 0.0
0.13889 -1.33125e-05 0.0
0.174379 -3.31711e-05 0.0
0.201605 -4.52291e-05 0.0
0.235786 -5.43861e-05 0.0
0.244084 -5.63977e-05 0.0
0.2236 -7.33805e-05 0.0
0.24975 -5.80428e-05 0.0
0.249043 -6.39127e-05 0.0
0.231404 -2.69228e-05 0.0
0.244081 -5.37914e-05 0.0
0 0 0.0
0.0361064 -4.71123e-06 0.0
0.0736111 -1.3145e-05 0.0
0.0622458 -1.43931e-05 0.0
0.174371 -3.06112e-05 0.0
0.220162 -4.22187e-05 0.0
0.201595 -4.2215e-05 0.0
0.11555 -1.87991e-05 0.0
0.146678 -2.86202e-05 0.0
0 0 0.0
0.0360882 -3.17921e-06 0.0
0.0693675 -1.00815e-05 0.0
0.0899864 -1.95259e-05 0.0
0.109389 -2.75392e-05 0.0
0.14669 -2.98359e-05 0.0
0.1789 -5.55364e-05 0.0
0.206291 -7.2291e-05 0.0
0.214497 -9.72134e-05 0.0
0.238525 -8.48892e-05 0.0
0.247348 -8.71576e-05 0.0
0.229603 -0.000108896 0.0
0.226325 -7.17775e-05 0.0
0.249982 -8.61883e-05 0.0
0.246426 -8.2688e-05 0.0
0.236681 -7.70479e-05 0.0
0 0 0.0
0.0322471 -5.3594e-06 0.0
0.0956924 -3.12238e-05 0.0
0.0694224 -2.3619e-05 0.0
0.178879 -5.05398e-05 0.0
0.206271 -6.70681e-05 0.0
0.127481 -3.93309e-05 0.0
0.165879 -6.32337e-05 0.0
0.152329 -4.60032e-05 0.0
0 0 0.0
0.0360814 -4.48505e-06 0.0
0.0622001 -1.36777e-05 0.0
0.0956363 -2.99434e-05 0.0
0.127521 -4.25697e-05 0.0
0.156658 -6.188e-05 0.0
0.115595 -4.88272e-05 0.0
0.193621 -0.000101976 0.0
0.218136 -0.000128428 0.0
0.240936 -0.000114653 0.0
0.247734 -0.000117238 0.0
0.249998 -0.000116665 0.0
0.234391 -0.000146982 0.0
0.229579 -9.91463e-05 0.0
0.247726 -0.000113399 0.0
0.24092 -0.000107922 0.0
0 0 0.0
0.0344814 -7.47292e-06 0.0
0.103113 -4.79551e-05 0.0
0.0622926 -2.39401e-05 0.0
0.189732 -7.84867e-05 0.0
0.212994 -0.000108268 0.0
0.170544 -8.41568e-05 0.0
0.14434 -6.32236e-05 0.0
0 0 0.0
0.039903 -7.49422e-06 0.0
0.0997978 -4.03138e-05 0.0
0.0693309 -2.16467e-05 0.0
0.170618 -9.4184e-05 0.0
0.144415 -7.11835e-05 0.0
0.124367 -7.2019e-05 0.0
0.183642 -0.000119411 0.0
0.204124 -0.000142924 0.0
0.222029 -0.000167354 0.0
0.249105 -0.000150377 0.0
0.24402 -0.000152728 0.0
0.249114 -0.000154012 0.0
0.23854 -0.000186897 0.0
0.234355 -0.000133352 0.0
0.244881 -0.000155203 0.0
0 0 0.0
0.0322834 -7.84642e-06 0.0
0.0940612 -5.01539e-05 0.0
0.0652016 -2.9542e-05 0.0
0.196707 -0.000114226 0.0
0.217879 -0.000139676 0.0
0.177457 -0.000114498 0.0
0.148706 -8.20406e-05 0.0
0.120344 -5.84274e-05 0.0
0 0 0.0
0.0343984 -7.01212e-06 0.0
0.0716603 -2.7975e-05 0.0
0.152415 -0.000103559 0.0
0.127601 -8.91306e-05 0.0
0.187568 -0.0001492 0.0
0.211939 -0.000186085 0.0
0.2486 -0.000183857 0.0
0.225671 -0.000209476 0.0
0.249774 -0.000190499 0.0
0.246464 -0.000191582 0.0
0.242048 -0.000228721 0.0
0.238491 -0.000168158 0.0
0 0 0.0
0.0338611 -9.21601e-06 0.0
0.0999736 -6.5137e-05 0.0
0.0695202 -3.6015e-05 0.0
0.206276 -0.000146758 0.0
0.222415 -0.000170834 0.0
0.190003 -0.000149098 0.0
0.168284 -0.000123235 0.0
0.143033 -9.70984e-05 0.0
0.124218 -7.31758e-05 0.0
0.0971064 -5.00138e-05 0.0
0 0 0.0
0.0360332 -8.87407e-06 0.0
0.0673387 -3.06117e-05 0.0
0.130317 -0.000106676 0.0
0.16847 -0.000147019 0.0
0.199459 -0.000193994 0.0
0.218362 -0.000227567 0.0
0.241989 -0.000204661 0.0
0.249986 -0.000226025 0.0
0.24798 -0.000216745 0.0
0.22906 -0.000255294 0.0
0.244912 -0.000271676 0.0
0.248722 -0.000243047 0.0
0.234449 -0.000203129 0.0
0 0 0.0
0.0362097 -9.75125e-06 0.0
0.122637 -0.000105163 0.0
0.0711926 -3.61865e-05 0.0
0.208372 -0.000173111 0.0
0.225139 -0.000204538 0.0
0.198084 -0.000174787 0.0
0.177767 -0.000148835 0.0
0.146569 -0.000115437 0.0
0.119171 -8.43898e-05 0.0
0.0970813 -5.74027e-05 0.0
0 0 0.0
0.0349559 -1.06414e-05 0.0
0.0673083 -3.64654e-05 0.0
0.152286 -0.000152328 0.0
0.178003 -0.000191397 0.0
0.210098 -0.000244675 0.0
0.244848 -0.000240342 0.0
0.2494 -0.000257489 0.0
0.232194 -0.000305128 0.0
0.244159 -0.000314092 0.0
0.249951 -0.000307611 0.0
0.249103 -0.000283422 0.0
0.235913 -0.000234884 0.0
0.212938 -0.000311503 0.0
0 0 0.0
0.0371221 -7.7495e-06 0.0
0.141096 -0.000150427 0.0
0.0999232 -7.14496e-05 0.0
0.0665448 -2.52201e-05 0.0
0.213657 -0.000200878 0.0
0.186662 -0.000173969 0.0
0.165146 -0.000148713 0.0
0.122297 -0.000103248 0.0
0.0929095 -6.74402e-05 0.0
0 0 0.0
0.0349285 -1.35045e-05 0.0
0.0642627 -4.49787e-05 0.0
0.165586 -0.000201282 0.0
0.186954 -0.000243237 0.0
0.158122 -0.000210226 0.0
0.247068 -0.000279006 0.0
0.248646 -0.000322587 0.0
0.23101 -0.00035537 0.0
0.240474 -0.000365939 0.0
0.248699 -0.000357368 0.0
0.240192 -0.000266047 0.0
0.229267 -0.000244448 0.0
0.199166 -0.000313114 0.0
0.218598 -0.000379232 0.0
0 0 0.0
0.0345856 -2.70674e-06 0.0
0.126161 -0.000130484 0.0
0.0681046 -2.0082e-05 0.0
0.0987807 -6.49348e-05 0.0
0.208134 -0.000209945 0.0
0.189833 -0.000186923 0.0
0.168214 -0.000166161 0.0
0.140699 -0.000134979 0.0
0.0954686 -8.74768e-05 0.0
0 0 0.0
0.0332683 -1.71264e-05 0.0
0.0660953 -6.29626e-05 0.0
0.183222 -0.000298615 0.0
0.159279 -0.000243875 0.0
0.24486 -0.000309185 0.0
0.249582 -0.000370204 0.0
0.235894 -0.000426044 0.0
0.244775 -0.000422215 0.0
0.249291 -0.000401963 0.0
0.238599 -0.000286967 0.0
0.218462 -0.000231816 0.0
0.203088 -0.000389822 0.0
0.223317 -0.000452751 0.0
0 0 0.0
0.0477017 -1.27979e-06 0.0
0.127939 -0.000149866 0.0
0.0903662 -4.57515e-05 0.0
0.202689 -0.000204989 0.0
0.178085 -0.00018143 0.0
0.148019 -0.000163006 0.0
0.118816 -0.00012871 0.0
0.0780856 -9.71833e-05 0.0
0 0 0.0
0.0342341 -2.52915e-05 0.0
0.187846 -0.000386984 0.0
0.160447 -0.000289641 0.0
0.246379 -0.000345743 0.0
0.249875 -0.000426971 0.0
0.24003 -0.000503287 0.0
0.247424 -0.000508871 0.0
0.239809 -0.000304828 0.0
0.227305 -0.000250351 0.0
0.209813 -0.000206412 0.0
0.227641 -0.000538336 0.0
0.210261 -0.000493676 0.0
0 0 0.0
0.0477122 2.66683e-06 0.0
0.12808 -0.00018263 0.0
0.0904436 -4.92572e-05 0.0
0.187319 -0.00018266 0.0
0.15981 -0.000173396 0.0
0.0471955 -5.38562e-05 0.0
0.127265 -0.00016544 0.0
0.0896868 -0.000131642 0.0
0 0 0.0
0.187952 -0.000484305 0.0
0.160595 -0.000365629 0.0
0.247292 -0.000383257 0.0
0.249806 -0.000480477 0.0
0.240009 -0.000601821 0.0
0.247358 -0.000594559 0.0
0.227248 -0.000230249 0.0
0.239737 -0.000304726 0.0
0.187308 -0.000153522 0.0
0.209776 -0.000176107 0.0
0.227654 -0.000634599 0.0
0.210323 -0.000617933 0.0
0 0 0.0
0.0477271 -2.16843e-06 0.0
0.128261 -0.000251584 0.0
0.0905696 -8.11061e-05 0.0
0.127259 -0.000170976 0.0
0.159814 -0.000158166 0.0
0.0471067 -6.43002e-05 0.0
0.0896278 -0.000148283 0.0
0 0 0.0
0.18808 -0.000623038 0.0
0.16078 -0.000485941 0.0
0.247201 -0.00040396 0.0
0.249705 -0.000535851 0.0
0.227655 -0.000755256 0.0
0.239942 -0.000782928 0.0
0.247264 -0.000695176 0.0
0.227186 -0.000195647 0.0
0.239638 -0.000287173 0.0
0.187304 -0.000109006 0.0
0.209732 -0.000110816 0.0
0.210388 -0.000782976 0.0
0 0 0.0
0.0477719 -1.82338e-05 0.0
0.128531 -0.000404802 0.0
0.0907379 -0.000154632 0.0
0.127269 -0.000148294 0.0
0.159839 -0.000106026 0.0
0.0470027 -6.83033e-05 0.0
0.0895781 -0.000144066 0.0
0 0 0.0
0.161004 -0.000672067 0.0
0.188267 -0.000875753 0.0
0.24707 -0.000417858 0.0
0.249559 -0.000596835 0.0
0.239869 -0.000916717 0.0
0.227635 -0.0010125 0.0
0.24712 -0.000814033 0.0
0.239499 -0.000247616 0.0
0.227104 -0.00013742 0.0
0.187303 -5.99938e-06 0.0
0.209673 -2.80697e-06 0.0
0.21045 -0.00100852 0.0
0 0 0.0
0.0478633 -5.04617e-05 0.0
0.12878 -0.000587907 0.0
0.0909884 -0.000284802 0.0
0.127309 -7.46163e-05 0.0
0.159882 2.48519e-06 0.0
0 0 0.0
0.0895615 -9.93441e-05 0.0
0.0469149 -6.10464e-05 0.0
0.188425 -0.00117693 0.0
0.161256 -0.00094525 0.0
0.227588 -0.00122276 0.0
0.246888 -0.000421206 0.0
0.249354 -0.000663208 0.0
0.246966 -0.000922003 0.0
0.239766 -0.00107331 0.0
0.239306 -0.000181482 0.0
0.226973 -3.08111e-05 0.0
0.1873 0.00021438 0.0
0.209588 0.000161313 0.0
0.210495 -0.00129406 0.0
0 0 0.0
0.0480504 -0.00011175 0.0
0.091316 -0.000456391 0.0
0.129137 -0.000890916 0.0
0.127404 0.000103673 0.0
0.159941 0.00019049 0.0
0 0 0.0
0.0468594 -3.5491e-05 0.0
0.0895963 -1.16444e-05 0.0
0.188544 -0.00145802 0.0
0.161541 -0.00132722 0.0
0.227503 -0.00147524 0.0
0.239493 -0.0014135 0.0
0.246637 -0.000413604 0.0
0.249071 -0.000733104 0.0
0.24677 -0.00104664 0.0
0.239042 -8.52902e-05 0.0
0.226787 0.000123106 0.0
0.187275 0.000410167 0.0
0.209462 0.000391314 0.0
0.210509 -0.00166127 0.0
0 0 0.0
0.048371 -0.00018646 0.0
0.12969 -0.00137546 0.0
0.0919136 -0.000751474 0.0
0.127512 0.000311577 0.0
0.16001 0.000473966 0.0
0.0468851 8.78756e-06 0.0
0 0 0.0
0.0897457 0.000161343 0.0
0.161847 -0.00182358 0.0
0.18872 -0.00205905 0.0
0.227283 -0.00197826 0.0
0.239186 -0.00171435 0.0
0.246426 -0.00123649 0.0
0.246121 -0.000379707 0.0
0.248692 -0.000816904 0.0
0.238689 4.54261e-05 0.0
0.226427 0.000413325 0.0
0.187212 0.000853758 0.0
0.209274 0.000697792 0.0
0.210477 -0.00211971 0.0
0 0 0.0
0.0488601 -0.000290271 0.0
0.0926586 -0.0010748 0.0
0.162184 -0.00242878 0.0
0.130174 -0.00181538 0.0
0.12771 0.000652176 0.0
0.160058 0.000776491 0.0
0.047019 7.84075e-05 0.0
0 0 0.0
0.0899777 0.00035263 0.0
0.210394 -0.0025762 0.0
0.188785 -0.00250238 0.0
0.238868 -0.00199761 0.0
0.226997 -0.00244632 0.0
0.245744 -0.00155128 0.0
0.248197 -0.000906431 0.0
0.245731 -0.000351033 0.0
0.238225 0.000208403 0.0
0.226106 0.000640642 0.0
0.187115 0.0011895 0.0
0.160155 0.00136695 0.0
0.209006 0.00108016 0.0
0 0 0.0
0.0935831 -0.00142063 0.0
0.0495768 -0.000409588 0.0
0.162478 -0.00300511 0.0
0.131046 -0.00250635 0.0
0.128001 0.00109116 0.0
0 0 0.0
0.0472961 0.000160363 0.0
0.0904825 0.000658894 0.0
0.210253 -0.0030935 0.0
0.188869 -0.00337411 0.0
0.238467 -0.00229955 0.0
0.226617 -0.00298203 0.0
0.245233 -0.00175565 0.0
0.247556 -0.00100856 0.0
0.245278 -0.000316926 0.0
0.1602 0.00182905 0.0
0.208692 0.00146589 0.0
0.237621 0.000402428 0.0
0.225712 0.000903852 0.0
0.186944 0.00172292 0.0
0 0 0.0
0.0504373 -0.00052262 0.0
0.0948221 -0.00183102 0.0
0.162875 -0.00378209 0.0
0.131976 -0.00316867 0.0
0.091178 0.000994336 0.0
0.128472 0.00168129 0.0
0 0 0.0
0.0477811 0.000272141 0.0
0.209987 -0.00379139 0.0
0.188858 -0.00417008 0.0
0.237842 -0.00273634 0.0
0.226098 -0.00357798 0.0
0.24466 -0.00197504 0.0
0.246772 -0.00112276 0.0
0.244182 -0.00023151 0.0
0.160296 0.00249782 0.0
0.236875 0.000624879 0.0
0.208299 0.00189922 0.0
0.224879 0.00141133 0.0
0.186625 0.0025 0.0
0 0 0.0
0.0965731 -0.00228437 0.0
0.0516417 -0.00066056 0.0
0.163456 -0.00480607 0.0
0.133147 -0.00386224 0.0
0.0920136 0.0013273 0.0
0.129054 0.00224426 0.0
0 0 0.0
0.0484002 0.000375891 0.0
0.188814 -0.00504108 0.0
0.209625 -0.00456276 0.0
0.237057 -0.00322385 0.0
0.243753 -0.0022884 0.0
0.225441 -0.00423886 0.0
0.245796 -0.00125156 0.0
0.24319 -0.000176052 0.0
0.235948 0.00086477 0.0
0.244548 -0.00195401 0.0
0.160396 0.00320369 0.0
0.224052 0.00183234 0.0
0.207501 0.00264295 0.0
0.186353 0.00300862 0.0
0 0 0.0
0.0982845 -0.0026515 0.0
0.0530614 -0.00079731 0.0
0.163892 -0.00550971 0.0
0.134551 -0.00456065 0.0
0.0931788 0.00167804 0.0
0.129681 0.00274847 0.0
0 0 0.0
0.0492314 0.000471588 0.0
0.188731 -0.00596343 0.0
0.209138 -0.00539983 0.0
0.236096 -0.00374767 0.0
0.224629 -0.0049583 0.0
0.242097 -0.00280089 0.0
0.244212 -0.000747067 0.0
0.239275 0.000478098 0.0
0.229751 0.00164922 0.0
0.243971 -0.00147354 0.0
0.160569 0.00393791 0.0
0.215632 0.00270186 0.0
0.201986 0.00340202 0.0
0.185848 0.00391464 0.0
0 0 0.0
0.100463 -0.00303672 0.0
0.0546783 -0.000915152 0.0
0.164582 -0.0063934 0.0
0.136215 -0.00522712 0.0
0.130782 0.00341741 0.0
0.0946221 0.00201293 0.0
0 0 0.0
0.050378 0.000577224 0.0
0.188634 -0.00691786 0.0
0.208547 -0.00628729 0.0
0.240712 -0.00318253 0.0
0.223656 -0.00572379 0.0
0.234957 -0.00432502 0.0
0.241285 -9.27587e-05 0.0
0.234065 0.00128732 0.0
0.222322 0.00258134 0.0
0.242481 -0.00164751 0.0
0.160799 0.00463882 0.0
0.206085 0.0037004 0.0
0.185357 0.00464335 0.0
0 0 0.0
0.0563727 -0.00101333 0.0
0.102906 -0.00336719 0.0
0.137875 -0.00574234 0.0
0.188563 -0.00787161 0.0
0.165408 -0.00724419 0.0
0.131956 0.00395095 0.0
0.0962958 0.00230739 0.0
0.0515611 0.000679229 0.0
0 0 0.0
0.222728 -0.00639505 0.0
0.20786 -0.00720929 0.0
0.239483 -0.00350813 0.0
0.233618 -0.00494128 0.0
0.221023 0.00305278 0.0
0.239779 -4.12637e-05 0.0
0.232616 0.00155556 0.0
0.240771 -0.00184356 0.0
0.184863 0.00534583 0.0
0.161253 0.0054182 0.0
0.204745 0.00452452 0.0
0 0 0.0
0.0583741 -0.00107915 0.0
0.105892 -0.00364112 0.0
0.140064 -0.00628386 0.0
0.188541 -0.00859597 0.0
0.1667 -0.00819316 0.0
0.13336 0.00439046 0.0
0.0983986 0.00256172 0.0
0.052946 0.000746403 0.0
0 0 0.0
0.13504 0.0047113 0.0
0.221701 -0.00708085 0.0
0.206849 -0.00843814 0.0
0.231419 -0.00587058 0.0
0.238126 -0.00385108 0.0
0.218972 0.00369 0.0
0.230949 0.00182255 0.0
0.238044 -9.34097e-06 0.0
0.238818 -0.00206775 0.0
0.184379 0.00600794 0.0
0.161804 0.00594267 0.0
0.203564 0.00512272 0.0
0 0 0.0
0.0604544 -0.00111857 0.0
0.108851 -0.00382552 0.0
0.142524 -0.00670409 0.0
0.188607 -0.00948388 0.0
0.16802 -0.00886868 0.0
0.0543368 0.000770683 0.0
0.100486 0.00268375 0.0
0 0 0.0
0.136571 0.00486922 0.0
0.220326 -0.00793775 0.0
0.206029 -0.00937245 0.0
0.229606 -0.00656807 0.0
0.236169 -0.00433087 0.0
0.217548 0.00404343 0.0
0.229066 0.00207195 0.0
0.23663 -0.00232163 0.0
0.23511 3.77409e-06 0.0
0.184047 0.00642271 0.0
0.162539 0.00630907 0.0
0.202318 0.005671 0.0
0 0 0.0
0.062644 -0.00115146 0.0
0.111927 -0.00393389 0.0
0.145665 -0.00703803 0.0
0.188905 -0.0104757 0.0
0.205214 -0.010264 0.0
0.169626 -0.00941077 0.0
0.0557947 0.000764359 0.0
0.102675 0.0027071 0.0
0 0 0.0
0.138567 0.00488075 0.0
0.218289 -0.00909231 0.0
0.228014 -0.0071535 0.0
0.233993 -0.00483709 0.0
0.23482 -0.00253881 0.0
0.216034 0.0043681 0.0
0.226955 0.00227574 0.0
0.232782 -2.48463e-05 0.0
0.163527 0.00648492 0.0
0.183718 0.00683706 0.0
0.201038 0.00611387 0.0
0 0 0.0
0.0648782 -0.00119404 0.0
0.115121 -0.00395189 0.0
0.148672 -0.00717931 0.0
0.189244 -0.010969 0.0
0.204478 -0.0110667 0.0
0.171515 -0.0097962 0.0
0.0572503 0.000719634 0.0
0.104923 0.0026247 0.0
0 0 0.0
0.16442 0.00646365 0.0
0.107091 0.0024424 0.0
0.140978 0.0046585 0.0
0.216679 -0.009931 0.0
0.226321 -0.00772375 0.0
0.23043 -0.00561822 0.0
0.232888 -0.00277196 0.0
0.230822 -8.01597e-05 0.0
0.214081 0.00468544 0.0
0.22367 0.00248243 0.0
0.18351 0.00707672 0.0
0.199961 0.00636505 0.0
0.215343 -0.0105387 0.0
0 0 0.0
0.0670348 -0.00117194 0.0
0.151859 -0.00716977 0.0
0.118312 -0.0039098 0.0
0.203864 -0.0117393 0.0
0.190089 -0.0115689 0.0
0.173668 -0.00999791 0.0
0.0587241 0.000656468 0.0
0 0 0.0
0.183557 0.00699995 0.0
0.165771 0.00619645 0.0
0.143184 0.00422926 0.0
0.0598173 0.000598784 0.0
0.109141 0.00212427 0.0
0.224105 -0.00843402 0.0
0.228362 -0.00605327 0.0
0.230109 -0.00312493 0.0
0.227896 -0.00342447 0.0
0.228731 -0.000170823 0.0
0.212045 0.00484809 0.0
0.22112 0.00250097 0.0
0.198955 0.00645955 0.0
0.214032 -0.0110762 0.0
0.0689954 -0.0011552 0.0
0 0 0.0
0.154602 -0.00707484 0.0
0.121451 -0.00380957 0.0
0.203421 -0.0122321 0.0
0.190823 -0.011785 0.0
0.17607 -0.0100262 0.0
0 0 0.0
0.183778 0.00666079 0.0
0.167542 0.00550487 0.0
0.14494 0.00373706 0.0
0.0608286 0.00046973 0.0
0.110917 0.00174006 0.0
0.220808 -0.0093464 0.0
0.226203 -0.00647931 0.0
0.22561 -0.00375259 0.0
0.224523 -0.000476726 0.0
0.210012 0.00481688 0.0
0.218475 0.00235975 0.0
0.197589 0.00621948 0.0
0.212533 -0.0116053 0.0
0 0 0.0
0.0710864 -0.00110398 0.0
0.157863 -0.00688782 0.0
0.124215 -0.00369945 0.0
0.178626 -0.00989189 0.0
0.203201 -0.0125393 0.0
0.192303 -0.011883 0.0
0 0 0.0
0 0 0.0
0.184224 0.00596951 0.0
0.169178 0.00461571 0.0
0.146916 0.00298715 0.0
0.112391 0.00128554 0.0
0.0616083 0.000319295 0.0
0.218474 -0.00989679 0.0
0.22333 -0.00702841 0.0
0.216331 0.0021141 0.0
0.222476 -0.00424399 0.0
0.221492 -0.000862205 0.0
0.208043 0.00450644 0.0
0.196758 0.00565787 0.0
0.216619 -0.0102661 0.0
0.211162 -0.0119712 0.0
0.0731331 -0.00107809 0.0
0.12716 -0.00357058 0.0
0.161124 -0.00667983 0.0
0.180815 -0.00971571 0.0
0.203199 -0.0126517 0.0
0.193399 -0.0118481 0.0
0 0 0.0
0 0 0.0
0.170374 0.00376798 0.0
0.18496 0.00467223 0.0
0.113363 0.00084895 0.0
0.148819 0.00200043 0.0
0.0621023 0.000178671 0.0
0.219126 -0.0077888 0.0
0.219333 -0.00482788 0.0
0.196123 0.00473293 0.0
0.214211 0.00170648 0.0
0.219117 -0.00127532 0.0
0.205565 0.00360269 0.0
0.214886 -0.0105718 0.0
0.209625 -0.0122427 0.0
0.203399 -0.0126328 0.0
0.0751155 -0.00110475 0.0
0.130033 -0.00349548 0.0
0.164707 -0.00649729 0.0
0.183486 -0.00945754 0.0
0.195367 -0.0116363 0.0
0 0 0.0
0 0 0.0
0.172035 0.00229542 0.0
0.1857 0.00331763 0.0
0.114156 0.00028928 0.0
0.15009 0.00108038 0.0
0.0623766 4.06454e-05 0.0
0.216767 -0.00178941 0.0
0.216284 -0.00549802 0.0
0.216359 -0.00831741 0.0
0.195687 0.00350001 0.0
0.211685 0.000939462 0.0
0.203977 0.00253622 0.0
0.186384 0.00179347 0.0
0.212109 -0.0110221 0.0
0 0 0.0
0.208701 -0.0123862 0.0
0.197092 -0.0114687 0.0
0.203765 -0.0125687 0.0
0.0769727 -0.00112929 0.0
0.167337 -0.00644288 0.0
0.133087 -0.00355438 0.0
0.186696 -0.00929548 0.0
0 0 0.0
0 0 0.0
0 0 0.0
0 0 0.0
0 0 0.0
0.0623651 -8.55792e-05 0.0
0.150945 0.000145845 0.0
0.173176 0.000971566 0.0
0.114453 -0.00014245 0.0
0.21385 -0.00261295 0.0
0.213435 -0.00627398 0.0
0.213754 -0.00888493 0.0
0.202789 0.0014495 0.0
0.195372 0.00199552 0.0
0.208385 -0.000560362 0.0
0.195184 0.000585847 0.0
0.186792 0.000615925 0.0
0.210398 -0.0113988 0.0
0.207976 -0.0125305 0.0
0 0 0.0
-7.64814e-05 7.32219e-05 0.0
0 0 0.0
-0.000741624 0.00707942 0.0
0.204264 -0.012581 0.0
0.198369 -0.0114353 0.0
0.0790886 -0.00121446 0.0
0.170247 -0.00655252 0.0
0.135859 -0.00376296 0.0
0.189296 -0.00937748 0.0
0 0 0.0
0 0 0.0
0 0 0.0
-0.000648718 0.00486799 0.0
-0.000320366 0.000683504 0.0
-0.00070812 0.000700604 0.0
0 0 0.0
0.0620781 -0.000213588 0.0
0.151302 -0.000588646 0.0
0.173927 -0.000326493 0.0
0.114305 -0.000614933 0.0
0.211158 -0.00363891 0.0
0.210823 -0.00716092 0.0
0.211402 -0.00949513 0.0
0.201758 0.000223723 0.0
0.206748 -0.00163088 0.0
0.194966 -0.000851924 0.0
0.187189 -0.00133744 0.0
0.208914 -0.0118653 0.0
0.207949 -0.0126326 0.0
0.206272 -0.0128854 0.0
0 0 0.0
-0.000670735 0.000309549 0.0
0 0 0.0
0 0 0.0
-0.00244388 0.0134734 0.0
-0.00277328 0.0102922 0.0
0.203763 -0.0125944 0.0
0.199994 -0.0116186 0.0
0.138409 -0.0041099 0.0
0.0811977 -0.00138452 0.0
0.173097 -0.00694198 0.0
0.191694 -0.00975153 0.0
0 0 0.0
-0.00162387 0.0037205 0.0
-0.00228845 0.00673694 0.0
-0.0016416 0.00225872 0.0
-0.00231177 0.00159805 0.0
0 0 0.0
0.0616083 -0.000322326 0.0
0.151305 -0.00138288 0.0
0.17427 -0.00153673 0.0
0.11381 -0.000998375 0.0
0.208699 -0.00480333 0.0
0.208517 -0.00815663 0.0
0.20932 -0.0102122 0.0
0.20028 -0.0020157 0.0
0.205217 -0.00278803 0.0
0.194672 -0.00253933 0.0
0.174256 -0.00264418 0.0
0.187271 -0.00280353 0.0
0.207876 -0.012351 0.0
0.207092 -0.01315 0.0
0.205168 -0.0131405 0.0
0 0 0.0
-0.0022673 0.000636637 0.0
0 0 0.0
0 0 0.0
0 0 0.0
0 0 0.0
-0.00552388 0.0105613 0.0
-0.000562616 0.0105795 0.0
-0.00226329 0.015983 0.0
-0.00549716 0.019802 0.0
-0.00524479 0.0151928 0.0
0 0 0.0
7.19726e-05 0.0125049 0.0
0.20186 -0.0123508 0.0
0.193558 -0.0103446 0.0
0 0 0.0
0.0838722 -0.00168926 0.0
0.141474 -0.00470352 0.0
0.176368 -0.00792852 0.0
0 0 0.0
0 0 0.0
-0.00424709 0.00645151 0.0
-0.00428313 0.00405856 0.0
-0.00498809 0.00244457 0.0
0 0 0.0
0.0608985 -0.000420797 0.0
0.15079 -0.00217313 0.0
0.112963 -0.00132107 0.0
0.173885 -0.00339856 0.0
0.206542 -0.00609058 0.0
0.206967 -0.00897111 0.0
0.207491 -0.0110785 0.0
0.199479 -0.00340666 0.0
0.20353 -0.0043227 0.0
0.194242 -0.00412614 0.0
0.187056 -0.00378284 0.0
0.206255 -0.0136723 0.0