# vtk DataFile Version 3.0
Mesh NS-CD Problem
ASCII
DATASET UNSTRUCTURED_GRID
POINTS 10839 float
-2 0.3 0.0
-2 0.4 0.0
-2 0.35 0.0
-2 0.45 0.0
-2 0.5 0.0
-2 0.55 0.0
-2 0 0.0
-2 0.05 0.0
-2 0.85 0.0
-2 0.9 0.0
-2 0.1 0.0
-2 0.15 0.0
-2 0.25 0.0
-2 0.2 0.0
-1.96653 0.266667 0.0
-1.96524 0.415385 0.0
-1.96485 0.315 0.0
-1.96348 0.363636 0.0
-1.96414 0.464286 0.0
-2 0.6 0.0
-1.96538 0.584615 0.0
-1.96538 0.538462 0.0
-1.94979 0 0.0
-1.96653 0.0666666 0.0
-1.93306 0.0333333 0.0
-2 0.8 0.0
-2 0.75 0.0
-2 0.7 0.0
-2 0.65 0.0
-1.96249 0.7375 0.0
-1.96666 0.833333 0.0
-2 1 0.0
-2 0.95 0.0
-1.96249 0.8875 0.0
-1.96666 0.933333 0.0
-1.96234 0.1125 0.0
-1.96653 0.166667 0.0
-1.93724 0.225 0.0
-1.92971 0.28 0.0
-1.93048 0.380769 0.0
-1.93048 0.423077 0.0
-1.89958 0.3375 0.0
-1.9292 0.484203 0.0
-1.92117 0.530907 0.0
-1.96363 0.636364 0.0
-1.93076 0.576923 0.0
-1.89958 0 0.0
-1.88703 0.0375 0.0
-1.90963 0.08 0.0
-1.86611 0.0666666 0.0
-1.93749 0.775 0.0
-1.93635 0.672727 0.0
-1.92999 0.72 0.0
-1.93332 0.866667 0.0
-1.92856 0.821429 0.0
-1.94999 1 0.0
-1.92499 0.9625 0.0
-1.92499 0.925 0.0
-1.89998 0.9 0.0
-1.89958 0.125 0.0
-1.92827 0.178571 0.0
-1.89958 0.233333 0.0
-1.89045 0.290909 0.0
-1.86096 0.311538 0.0
-1.89241 0.392857 0.0
-1.89334 0.448489 0.0
-1.85655 0.357143 0.0
-1.89614 0.653846 0.0
-1.89427 0.504121 0.0
-1.8952 0.559753 0.0
-1.89614 0.615385 0.0
-1.84937 0 0.0
-1.83264 0.0333333 0.0
-1.85655 0.107143 0.0
-1.81172 0.075 0.0
-1.89998 0.766667 0.0
-1.89089 0.709091 0.0
-1.87498 0.85 0.0
-1.85998 0.79 0.0
-1.88748 0.8125 0.0
-1.89998 1 0.0
-1.88748 0.9625 0.0
-1.86664 0.933333 0.0
-1.85712 0.892857 0.0
-1.87448 0.15 0.0
-1.86611 0.194444 0.0
-1.83264 0.133333 0.0
-1.83264 0.2625 0.0
-1.82068 0.321429 0.0
-1.85664 0.404762 0.0
-1.85674 0.452381 0.0
-1.85683 0.5 0.0
-1.81184 0.375 0.0
-1.85712 0.642857 0.0
-1.85693 0.547619 0.0
-1.85702 0.595238 0.0
-1.79917 0 0.0
-1.78482 0.0357143 0.0
-1.79917 0.116667 0.0
-1.76569 0.0666666 0.0
-1.85452 0.745455 0.0
-1.82689 0.692308 0.0
-1.81815 0.781818 0.0
-1.82497 0.825 0.0
-1.84997 1 0.0
-1.8333 0.958333 0.0
-1.81247 0.8875 0.0
-1.81247 0.925 0.0
-1.81742 0.218182 0.0
-1.82427 0.175 0.0
-1.77634 0.145455 0.0
-1.79144 0.242308 0.0
-1.78482 0.285714 0.0
-1.77469 0.332653 0.0
-1.81215 0.529762 0.0
-1.81194 0.422619 0.0
-1.81203 0.470238 0.0
-1.76714 0.392857 0.0
-1.81234 0.625 0.0
-1.79732 0.571429 0.0
-1.74896 0 0.0
-1.73222 0.0333333 0.0
-1.75398 0.105 0.0
-1.71883 0.07 0.0
-1.79227 0.730769 0.0
-1.78007 0.679121 0.0
-1.75765 0.769231 0.0
-1.78178 0.818182 0.0
-1.78996 0.86 0.0
-1.79996 1 0.0
-1.78568 0.964286 0.0
-1.76663 0.922222 0.0
-1.76569 0.1875 0.0
-1.73222 0.15 0.0
-1.74896 0.25 0.0
-1.73714 0.304762 0.0
-1.76743 0.537202 0.0
-1.72869 0.343878 0.0
-1.76732 0.485119 0.0
-1.76723 0.440476 0.0
-1.72243 0.410714 0.0
-1.76757 0.607143 0.0
-1.69875 0 0.0
-1.68369 0.035 0.0
-1.69875 0.1125 0.0
-1.66528 0.075 0.0
-1.74341 0.708974 0.0
-1.73324 0.665934 0.0
-1.70441 0.74478 0.0
-1.71423 0.785714 0.0
-1.72303 0.826923 0.0
-1.74541 0.854545 0.0
-1.74541 0.890909 0.0
-1.74996 1 0.0
-1.73745 0.9625 0.0
-1.71359 0.927273 0.0
-1.68716 0.153846 0.0
-1.7131 0.214286 0.0
-1.70725 0.275 0.0
-1.69712 0.321939 0.0
-1.72279 0.589286 0.0
-1.72261 0.5 0.0
-1.7227 0.544643 0.0
-1.6827 0.355102 0.0
-1.67773 0.428571 0.0
-1.70763 0.464286 0.0
-1.70369 0.62449 0.0
-1.64854 0 0.0
-1.63181 0.0375 0.0
-1.64137 0.142857 0.0
-1.61764 0.0769231 0.0
-1.69458 0.703846 0.0
-1.67471 0.657437 0.0
-1.66143 0.727637 0.0
-1.67125 0.768571 0.0
-1.67851 0.821429 0.0
-1.68841 0.861538 0.0
-1.70904 0.890909 0.0
-1.69995 1 0.0
-1.68176 0.963636 0.0
-1.67267 0.927273 0.0
-1.65427 0.187143 0.0
-1.66718 0.231429 0.0
-1.66554 0.3 0.0
-1.67802 0.571429 0.0
-1.67792 0.523809 0.0
-1.6367 0.366327 0.0
-1.63682 0.423469 0.0
-1.62568 0.502976 0.0
-1.6629 0.470238 0.0
-1.65254 0.618367 0.0
-1.6059 0.307143 0.0
-1.59833 0 0.0
-1.58288 0.0384615 0.0
-1.60563 0.169643 0.0
-1.58179 0.112271 0.0
-1.56964 0.0714286 0.0
-1.64574 0.690385 0.0
-1.62827 0.751429 0.0
-1.63371 0.791071 0.0
-1.64279 0.857143 0.0
-1.65378 0.896154 0.0
-1.64994 1 0.0
-1.6363 0.963636 0.0
-1.61916 0.930769 0.0
-1.61345 0.209107 0.0
-1.62126 0.248571 0.0
-1.56989 0.196429 0.0
-1.63324 0.553571 0.0
-1.58846 0.535714 0.0
-1.59408 0.361905 0.0
-1.59161 0.402211 0.0
-1.58832 0.464286 0.0
-1.61504 0.598581 0.0
-1.59683 0.64359 0.0
-1.57899 0.274107 0.0
-1.56176 0.322381 0.0
-1.54812 0 0.0
-1.53378 0.0357143 0.0
-1.54593 0.147619 0.0
-1.53385 0.0732143 0.0
-1.53393 0.110714 0.0
-1.58522 0.704286 0.0
-1.58709 0.745 0.0
-1.58896 0.785714 0.0
-1.60695 0.830357 0.0
-1.60707 0.892857 0.0
-1.59993 1 0.0
-1.58454 0.965385 0.0
-1.57135 0.928571 0.0
-1.55209 0.241071 0.0
-1.5291 0.198214 0.0
-1.56936 0.570918 0.0
-1.54369 0.517857 0.0
-1.5464 0.380952 0.0
-1.54564 0.427721 0.0
-1.54488 0.47449 0.0
-1.55026 0.606122 0.0
-1.54222 0.677143 0.0
-1.52943 0.282857 0.0
-1.52143 0.33619 0.0
-1.49792 0 0.0
-1.49802 0.05 0.0
-1.49822 0.15 0.0
-1.49312 0.1 0.0
-1.5423 0.717143 0.0
-1.54419 0.767857 0.0
-1.54727 0.819048 0.0
-1.57122 0.861905 0.0
-1.53553 0.914286 0.0
-1.54992 1 0.0
-1.53563 0.964286 0.0
-1.49842 0.25 0.0
-1.48831 0.2 0.0
-1.5214 0.558929 0.0
-1.49891 0.5 0.0
-1.49871 0.4 0.0
-1.47631 0.45 0.0
-1.49911 0.6 0.0
-1.49921 0.65 0.0
-1.49931 0.7 0.0
-1.48111 0.35 0.0
-1.48351 0.3 0.0
-1.44771 0 0.0
-1.44782 0.05 0.0
-1.44804 0.15 0.0
-1.44793 0.1 0.0
-1.49941 0.75 0.0
-1.49951 0.8 0.0
-1.49981 0.95 0.0
-1.49961 0.85 0.0
-1.49971 0.9 0.0
-1.49991 1 0.0
-1.44826 0.25 0.0
-1.43815 0.2 0.0
-1.47151 0.55 0.0
-1.44881 0.5 0.0
-1.44859 0.4 0.0
-1.42619 0.45 0.0
-1.44913 0.65 0.0
-1.44902 0.6 0.0
-1.44935 0.75 0.0
-1.44924 0.7 0.0
-1.43972 0.35 0.0
-1.43336 0.3 0.0
-1.3975 0 0.0
-1.39762 0.05 0.0
-1.39786 0.15 0.0
-1.39274 0.1 0.0
-1.44957 0.85 0.0
-1.44946 0.8 0.0
-1.4523 0.95 0.0
-1.44968 0.9 0.0
-1.4499 1 0.0
-1.3981 0.25 0.0
-1.38798 0.2 0.0
-1.42141 0.55 0.0
-1.3987 0.5 0.0
-1.39834 0.35 0.0
-1.37845 0.4 0.0
-1.37607 0.45 0.0
-1.40784 0.65 0.0
-1.39894 0.6 0.0
-1.41185 0.75 0.0
-1.39918 0.7 0.0
-1.38322 0.3 0.0
-1.34729 0 0.0
-1.34492 0.05 0.0
-1.34018 0.15 0.0
-1.34255 0.1 0.0
-1.40707 0.85 0.0
-1.39941 0.8 0.0
-1.39977 0.95 0.0
-1.39965 0.9 0.0
-1.39989 1 0.0
-1.33781 0.2 0.0
-1.33544 0.25 0.0
-1.37131 0.55 0.0
-1.34859 0.5 0.0
-1.33833 0.4 0.0
-1.3307 0.35 0.0
-1.32595 0.45 0.0
-1.34885 0.6 0.0
-1.36655 0.65 0.0
-1.36179 0.75 0.0
-1.34911 0.7 0.0
-1.33307 0.3 0.0
-1.29708 0 0.0
-1.29722 0.05 0.0
-1.2975 0.15 0.0
-1.29236 0.1 0.0
-1.35703 0.85 0.0
-1.34937 0.8 0.0
-1.34988 1 0.0
-1.34962 0.9 0.0
-1.35226 0.95 0.0
-1.28528 0.25 0.0
-1.28764 0.2 0.0
-1.28931 0.35 0.0
-1.32121 0.55 0.0
-1.29848 0.5 0.0
-1.28709 0.45 0.0
-1.2982 0.4 0.0
-1.29876 0.6 0.0
-1.31647 0.65 0.0
-1.29918 0.75 0.0
-1.29904 0.7 0.0
-1.28292 0.3 0.0
-1.24687 0 0.0
-1.24702 0.05 0.0
-1.24717 0.1 0.0
-1.24732 0.15 0.0
-1.29946 0.85 0.0
-1.29932 0.8 0.0
-1.29987 1 0.0
-1.29974 0.95 0.0
-1.30462 0.9 0.0
-1.24762 0.25 0.0
-1.23747 0.2 0.0
-1.24792 0.35 0.0
-1.22807 0.4 0.0
-1.27111 0.55 0.0
-1.24837 0.5 0.0
-1.24822 0.45 0.0
-1.24867 0.6 0.0
-1.26639 0.65 0.0
-1.26167 0.75 0.0
-1.24897 0.7 0.0
-1.23277 0.3 0.0
-1.19667 0 0.0
-1.19683 0.05 0.0
-1.18964 0.15 0.0
-1.19198 0.1 0.0
-1.25695 0.85 0.0
-1.24927 0.8 0.0
-1.25223 0.95 0.0
-1.24987 1 0.0
-1.24957 0.9 0.0
-1.1873 0.2 0.0
-1.18496 0.25 0.0
-1.18028 0.35 0.0
-1.17794 0.4 0.0
-1.1981 0.45 0.0
-1.19842 0.55 0.0
-1.19826 0.5 0.0
-1.19858 0.6 0.0
-1.19874 0.65 0.0
-1.19906 0.75 0.0
-1.1989 0.7 0.0
-1.18262 0.3 0.0
-1.14646 0 0.0
-1.14663 0.05 0.0
-1.1418 0.1 0.0
-1.13713 0.2 0.0
-1.14697 0.15 0.0
-1.20691 0.85 0.0
-1.20926 0.8 0.0
-1.20221 0.95 0.0
-1.19986 1 0.0
-1.20456 0.9 0.0
-1.13997 0.3 0.0
-1.14731 0.25 0.0
-1.13781 0.4 0.0
-1.13014 0.35 0.0
-1.12548 0.45 0.0
-1.14815 0.5 0.0
-1.15962 0.55 0.0
-1.14849 0.6 0.0
-1.15745 0.65 0.0
-1.16155 0.75 0.0
-1.14917 0.8 0.0
-1.14883 0.7 0.0
-1.09625 0 0.0
-1.09661 0.1 0.0
-1.09393 0.05 0.0
-1.09697 0.2 0.0
-1.08929 0.15 0.0
-1.15687 0.85 0.0
-1.14985 1 0.0
-1.15219 0.95 0.0
-1.14951 0.9 0.0
-1.09733 0.3 0.0
-1.08465 0.25 0.0
-1.09769 0.4 0.0
-1.08 0.35 0.0
-1.08661 0.45 0.0
-1.09804 0.5 0.0
-1.12082 0.55 0.0
-1.10916 0.8 0.0
-1.10629 0.7 0.0
-1.0984 0.6 0.0
-1.11616 0.65 0.0
-1.11149 0.75 0.0
-1.04604 0 0.0
-1.04623 0.05 0.0
-1.04642 0.1 0.0
-1.0468 0.2 0.0
-1.03911 0.15 0.0
-1.09948 0.9 0.0
-1.0993 0.85 0.0
-1.09984 1 0.0
-1.09966 0.95 0.0
-1.04718 0.3 0.0
-1.03449 0.25 0.0
-1.04756 0.4 0.0
-1.02986 0.35 0.0
-1.04775 0.45 0.0
-1.04794 0.5 0.0
-1.04813 0.55 0.0
-1.05911 0.8 0.0
-1.04831 0.6 0.0
-1.06376 0.7 0.0
-1.0485 0.65 0.0
-1.04888 0.75 0.0
-0.995833 0 0.0
-0.991231 0.1 0.0
-0.996033 0.05 0.0
-0.986629 0.2 0.0
-0.98893 0.15 0.0
-1.05447 0.9 0.0
-1.04926 0.85 0.0
-1.04983 1 0.0
-1.04964 0.95 0.0
-0.984328 0.25 0.0
-0.99703 0.3 0.0
-0.997429 0.4 0.0
-0.997628 0.45 0.0
-0.979726 0.35 0.0
-0.997827 0.5 0.0
-0.998027 0.55 0.0
-0.998226 0.6 0.0
-0.961416 0.475 0.0
-1.00907 0.8 0.0
-0.998426 0.65 0.0
-0.998625 0.7 0.0
-1.01138 0.75 0.0
-0.945625 0 0.0
-0.946044 0.1 0.0
-0.943334 0.05 0.0
-0.946463 0.2 0.0
-0.938752 0.15 0.0
-1.00444 0.9 0.0
-1.00675 0.85 0.0
-0.999821 1 0.0
-1.00213 0.95 0.0
-0.93417 0.25 0.0
-0.946881 0.3 0.0
-0.9473 0.4 0.0
-0.929588 0.35 0.0
-0.925005 0.45 0.0
-0.960371 0.525 0.0
-0.959325 0.575 0.0
-0.958279 0.625 0.0
-0.922714 0.5 0.0
-0.959017 0.8 0.0
-0.957233 0.675 0.0
-0.952999 0.7125 0.0
-0.948766 0.75 0.0
-0.895417 0 0.0
-0.895855 0.1 0.0
-0.893136 0.05 0.0
-0.896294 0.2 0.0
-0.888573 0.15 0.0
-0.949184 0.85 0.0
-0.954415 0.9 0.0
-0.949812 1 0.0
-0.949603 0.95 0.0
-0.884011 0.25 0.0
-0.896733 0.3 0.0
-0.874887 0.45 0.0
-0.879449 0.35 0.0
-0.897171 0.4 0.0
-0.920423 0.55 0.0
-0.918132 0.6 0.0
-0.915841 0.65 0.0
-0.872606 0.5 0.0
-0.908968 0.8 0.0
-0.91355 0.7 0.0
-0.898707 0.75 0.0
-0.845208 0 0.0
-0.845438 0.05 0.0
-0.845667 0.1 0.0
-0.845896 0.15 0.0
-0.833853 0.25 0.0
-0.846126 0.2 0.0
-0.899146 0.85 0.0
-0.904386 0.9 0.0
-0.899584 0.95 0.0
-0.899804 1 0.0
-0.838062 0.35 0.0
[...]
POINT_DATA 10839
VECTORS Velocity float
0.21 0 0.0
0.24 0 0.0
0.2275 0 0.0
0.2475 0 0.0
0.25 0 0.0
0.2475 0 0.0
0 0 0.0
0.0475 0 0.0
0.1275 0 0.0
0.09 0 0.0
0.09 0 0.0
0.1275 0 0.0
0.1875 0 0.0
0.16 0 0.0
0.195557 -2.23859e-05 0.0
0.24284 -2.72803e-05 0.0
0.215776 -2.6378e-05 0.0
0.231405 -2.87157e-05 0.0
0.248724 -2.6408e-05 0.0
0.24 0 0.0
0.242839 -1.94624e-05 0.0
0.24852 -2.24948e-05 0.0
0 0 0.0
0.0622237 -3.76894e-06 0.0
0.0322266 -2.68958e-06 0.0
0.16 0 0.0
0.1875 0 0.0
0.21 0 0.0
0.2275 0 0.0
0.193593 -1.38525e-05 0.0
0.138888 -8.53816e-06 0.0
0 0 0.0
0.0475 0 0.0
0.0998425 -6.30968e-06 0.0
0.0622212 -2.72237e-06 0.0
0.0998459 -9.7227e-06 0.0
0.138891 -1.37083e-05 0.0
0.17438 -3.56049e-05 0.0
0.201605 -4.93722e-05 0.0
0.235784 -5.60349e-05 0.0
0.244081 -5.49732e-05 0.0
0.223598 -8.03162e-05 0.0
0.249747 -5.05227e-05 0.0
0.24904 -5.04924e-05 0.0
0.231404 -1.78756e-05 0.0
0.244079 -3.81364e-05 0.0
0 0 0.0
0.0361075 -5.47321e-06 0.0
0.0736113 -1.40561e-05 0.0
0.0622461 -1.52128e-05 0.0
0.174373 -1.88827e-05 0.0
0.220163 -2.57455e-05 0.0
0.201597 -2.48332e-05 0.0
0.115552 -1.27406e-05 0.0
0.14668 -1.8358e-05 0.0
0 0 0.0
0.0360899 -1.99126e-06 0.0
0.0693697 -6.61451e-06 0.0
0.0899906 -1.28332e-05 0.0
0.10939 -2.8657e-05 0.0
0.146691 -3.15254e-05 0.0
0.178902 -6.16456e-05 0.0
0.206292 -8.17483e-05 0.0
0.214496 -0.000112871 0.0
0.238519 -8.85772e-05 0.0
0.24734 -8.26772e-05 0.0
0.229596 -0.000122894 0.0
0.226324 -4.12439e-05 0.0
0.249973 -7.15644e-05 0.0
0.24642 -5.95749e-05 0.0
0.236678 -4.86647e-05 0.0
0 0 0.0
0.0322488 -5.21275e-06 0.0
0.0956927 -3.11713e-05 0.0
0.06942 -1.71185e-05 0.0
0.178884 -2.88052e-05 0.0
0.206274 -3.61595e-05 0.0
0.127489 -2.52436e-05 0.0
0.165892 -3.46851e-05 0.0
0.152337 -2.78667e-05 0.0
0 0 0.0
0.0360859 -2.48724e-06 0.0
0.0622069 -8.90009e-06 0.0
0.095645 -2.09229e-05 0.0
0.127524 -4.44327e-05 0.0
0.156663 -6.80738e-05 0.0
0.115599 -4.73996e-05 0.0
0.193628 -0.000122393 0.0
0.218132 -0.000156749 0.0
0.240924 -0.000120892 0.0
0.247718 -0.000112238 0.0
0.249981 -9.82501e-05 0.0
0.234374 -0.000171462 0.0
0.229576 -5.31408e-05 0.0
0.247712 -8.21486e-05 0.0
0.24091 -6.63968e-05 0.0
0 0 0.0
0.0344768 -2.56557e-06 0.0
0.103117 -3.7763e-05 0.0
0.0622794 -1.97362e-06 0.0
0.189744 -3.80995e-05 0.0
0.213002 -4.61083e-05 0.0
0.170569 -4.01209e-05 0.0
0.144362 -3.76282e-05 0.0
0 0 0.0
0.039912 -5.77663e-06 0.0
0.0998147 -3.46793e-05 0.0
0.069342 -2.13751e-05 0.0
0.170632 -0.000110398 0.0
0.144426 -7.622e-05 0.0
0.124386 -6.16375e-05 0.0
0.183661 -0.000149762 0.0
0.204132 -0.000187086 0.0
0.222018 -0.000218633 0.0
0.249074 -0.000112825 0.0
0.243993 -0.000162163 0.0
0.249081 -0.000142983 0.0
0.238501 -0.000225459 0.0
0.234343 -6.42351e-05 0.0
0.244852 -9.33426e-05 0.0
0 0 0.0
0.0322533 6.95605e-06 0.0
0.0940666 -1.57334e-05 0.0
0.065165 2.37543e-05 0.0
0.196733 -3.80713e-05 0.0
0.217886 -4.24368e-05 0.0
0.177513 -3.4319e-05 0.0
0.148751 -4.73532e-05 0.0
0.120376 -4.73291e-05 0.0
0 0 0.0
0.0344055 -9.80896e-06 0.0
0.0716717 -4.45727e-05 0.0
0.152449 -0.000115759 0.0
0.127651 -6.71915e-05 0.0
0.187602 -0.000204081 0.0
0.211944 -0.000268595 0.0
0.248544 -0.000125207 0.0
0.225645 -0.00029642 0.0
0.249714 -0.000170254 0.0
0.246409 -0.000202633 0.0
0.241971 -0.00028359 0.0
0.238461 -7.27349e-05 0.0
0 0 0.0
0.0337745 2.23464e-05 0.0
0.100006 9.00043e-06 0.0
0.0694468 6.07282e-05 0.0
0.206308 -1.97646e-05 0.0
0.222414 -2.38287e-05 0.0
0.190091 4.60519e-06 0.0
0.168391 -2.84831e-05 0.0
0.143134 -6.35157e-05 0.0
0.124282 -7.02782e-05 0.0
0.0971436 -7.37816e-05 0.0
0 0 0.0
0.0360225 -2.30609e-05 0.0
0.0673324 -8.03678e-05 0.0
0.130428 -7.74213e-05 0.0
0.168547 -0.000198721 0.0
0.199498 -0.000301747 0.0
0.21835 -0.00035883 0.0
0.241923 -8.03297e-05 0.0
0.249887 -0.000187485 0.0
0.247889 -0.00013039 0.0
0.229002 -0.000393739 0.0
0.244773 -0.000340912 0.0
0.248609 -0.000247765 0.0
0.234399 -2.94298e-05 0.0
0 0 0.0
0.0360264 4.0116e-05 0.0
0.122822 -5.93731e-05 0.0
0.0710904 7.36336e-05 0.0
0.208417 2.56971e-05 0.0
0.225118 3.22856e-05 0.0
0.19819 7.31509e-05 0.0
0.177925 2.38403e-05 0.0
0.146751 -5.75197e-05 0.0
0.119302 -0.00011068 0.0
0.097139 -0.000107426 0.0
0 0 0.0
0.0348898 -4.17336e-05 0.0
0.0672764 -0.000116313 0.0
0.152474 -0.000205216 0.0
0.178127 -0.000316785 0.0
0.210117 -0.000428534 0.0
0.244722 -8.62096e-05 0.0
0.249243 -0.000175882 0.0
0.232078 -0.0005117 0.0
0.243956 -0.000433584 0.0
0.249681 -0.000247383 0.0
0.248918 -0.000290733 0.0
0.235812 1.90489e-05 0.0
0.212946 -0.00065033 0.0
0 0 0.0
0.036842 4.10381e-05 0.0
0.141425 -0.000229044 0.0
0.100104 -3.50772e-05 0.0
0.0663913 4.48289e-05 0.0
0.213694 0.000106855 0.0
0.186865 0.0001275 0.0
0.16542 4.40883e-05 0.0
0.122536 -0.000116365 0.0
0.0929946 -0.000155631 0.0
0 0 0.0
0.0347871 -5.70601e-05 0.0
0.0641734 -0.000139479 0.0
0.165858 -0.000387522 0.0
0.187118 -0.000495219 0.0
0.158558 -0.000508235 0.0
0.246847 -0.000101959 0.0
0.248286 -0.000149294 0.0
0.230842 -0.000680483 0.0
0.240201 -0.0006068 0.0
0.248336 -0.00041528 0.0
0.239997 3.46491e-05 0.0
0.229153 0.000181023 0.0
0.199298 -0.000745159 0.0
0.218519 -0.000876803 0.0
0 0 0.0
0.0342541 1.59347e-05 0.0
0.126678 -0.000351828 0.0
0.0680086 -3.32025e-05 0.0
0.0990886 -0.000199842 0.0
0.20823 0.00029636 0.0
0.190091 0.000274413 0.0
0.16861 0.000178053 0.0
0.141092 -8.86077e-06 0.0
0.0956318 -0.000155085 0.0
0 0 0.0
0.0330362 -5.77633e-05 0.0
0.0660093 -0.00011896 0.0
0.183548 -0.000812847 0.0
0.15986 -0.000776038 0.0
0.244491 1.70023e-05 0.0
0.249028 -0.000224352 0.0
0.235553 -0.000856406 0.0
0.244296 -0.000677078 0.0
0.248739 -0.000455868 0.0
0.23826 0.000213357 0.0
0.218407 0.00046955 0.0
0.203196 -0.00108555 0.0
0.223096 -0.00112066 0.0
0 0 0.0
0.0474745 -5.53855e-05 0.0
0.128683 -0.000729377 0.0
0.0907564 -0.000379491 0.0
0.202861 0.000514842 0.0
0.178549 0.000443892 0.0
0.148659 0.000253667 0.0
0.119271 -2.30395e-05 0.0
0.0782137 -2.79933e-05 0.0
0 0 0.0
0.0339514 -4.4542e-05 0.0
0.1882 -0.0012854 0.0
0.161161 -0.00117145 0.0
0.245779 4.03e-05 0.0
0.24907 -0.00034896 0.0
0.239416 -0.00103194 0.0
0.246522 -0.00079161 0.0
0.23923 0.000363669 0.0
0.226992 0.000627719 0.0
0.209854 0.000798095 0.0
0.227202 -0.0013896 0.0
0.2102 -0.00149163 0.0
0 0 0.0
0.0477824 -0.000197962 0.0
0.129109 -0.00133272 0.0
0.0912062 -0.000754694 0.0
0.18776 0.000812158 0.0
0.160598 0.000685206 0.0
0.0470399 7.72351e-06 0.0
0.128122 0.000451375 0.0
0.0901514 0.000191038 0.0
0 0 0.0
0.188328 -0.00186925 0.0
0.161446 -0.00183824 0.0
0.246367 6.41163e-05 0.0
0.248622 -0.000398822 0.0
0.239079 -0.00133958 0.0
0.246026 -0.000996671 0.0
0.22672 0.000982608 0.0
0.238855 0.000594429 0.0
0.187796 0.00134338 0.0
0.209713 0.00124752 0.0
0.227007 -0.00176635 0.0
0.210115 -0.00205847 0.0
0 0 0.0
0.048398 -0.000396868 0.0
0.129639 -0.00215624 0.0
0.0921308 -0.0013891 0.0
0.128422 0.00103221 0.0
0.160772 0.00126242 0.0
0.0472376 0.000141436 0.0
0.0905293 0.000590607 0.0
0 0 0.0
0.188375 -0.00264779 0.0
0.161694 -0.00273426 0.0
0.245855 0.000182876 0.0
0.248025 -0.00044191 0.0
0.226708 -0.00221751 0.0
0.238378 -0.00190798 0.0
0.245393 -0.00123259 0.0
0.226393 0.00134771 0.0
0.23833 0.000892007 0.0
0.187754 0.00186058 0.0
0.209468 0.00184551 0.0
0.209922 -0.00276777 0.0
0 0 0.0
0.0494219 -0.000631565 0.0
0.130472 -0.00334564 0.0
0.0933902 -0.0020811 0.0
0.128741 0.00169234 0.0
0.1609 0.00206529 0.0
0.0477537 0.000328369 0.0
0.0911863 0.00112802 0.0
0 0 0.0
0.161901 -0.00384854 0.0
0.188276 -0.00389381 0.0
0.245162 0.00032681 0.0
0.247222 -0.000495911 0.0
0.237788 -0.00229938 0.0
0.226007 -0.0031134 0.0
0.244536 -0.00151189 0.0
0.237623 0.00125842 0.0
0.225954 0.00179064 0.0
0.1876 0.00272438 0.0
0.209066 0.00258654 0.0
0.209574 -0.00364314 0.0
0 0 0.0
0.050731 -0.000849805 0.0
0.131262 -0.00431921 0.0
0.0951395 -0.00282035 0.0
0.129267 0.00264182 0.0
0.160974 0.00308643 0.0
0 0 0.0
0.0922755 0.00178494 0.0
0.0485395 0.000528006 0.0
0.188 -0.00512247 0.0
0.162088 -0.00515384 0.0
0.22537 -0.00377579 0.0
0.244261 0.00050571 0.0
0.246198 -0.000553352 0.0
0.243709 -0.0017561 0.0
0.237076 -0.00273884 0.0
0.23669 0.00169033 0.0
0.225249 0.0024227 0.0
0.187186 0.00407548 0.0
0.208467 0.00346963 0.0
0.209035 -0.00465841 0.0
0 0 0.0
0.0525897 -0.00107748 0.0
0.0971384 -0.00346921 0.0
0.132479 -0.00550474 0.0
0.130141 0.00390559 0.0
0.161001 0.00428941 0.0
0 0 0.0
0.0498356 0.000760828 0.0
0.0936188 0.0024291 0.0
0.187688 -0.0061281 0.0
0.162305 -0.00655675 0.0
0.224582 -0.00451789 0.0
0.235448 -0.00362254 0.0
0.243106 0.000710527 0.0
0.244901 -0.000611749 0.0
0.242727 -0.00203215 0.0
0.235503 0.00218608 0.0
0.224302 0.00315897 0.0
0.186772 0.00499662 0.0
0.207637 0.00449466 0.0
0.20826 -0.00581883 0.0
0 0 0.0
0.0548203 -0.00125382 0.0
0.134476 -0.00682201 0.0
0.100248 -0.00419885 0.0
0.131002 0.00487147 0.0
0.161039 0.00562149 0.0
0.0514379 0.000969904 0.0
0 0 0.0
0.0958139 0.00319914 0.0
0.162629 -0.00799878 0.0
0.187045 -0.00796935 0.0
0.222894 -0.00587528 0.0
0.233905 -0.00434311 0.0
0.241184 -0.0024259 0.0
0.240934 0.00106025 0.0
0.243306 -0.000692045 0.0
0.234022 0.00273899 0.0
0.2226 0.0043156 0.0
0.185952 0.00669982 0.0
0.206543 0.0056379 0.0
0.207249 -0.00711159 0.0
0 0 0.0
0.0574086 -0.00141584 0.0
0.103471 -0.00472464 0.0
0.163184 -0.00939178 0.0
0.136213 -0.00769767 0.0
0.13239 0.00598 0.0
0.161106 0.00670277 0.0
0.0534558 0.00115219 0.0
0 0 0.0
0.0980421 0.00374972 0.0
0.206192 -0.00830267 0.0
0.186573 -0.00908621 0.0
0.232452 -0.00498438 0.0
0.221275 -0.00699059 0.0
0.238384 -0.00305383 0.0
0.241379 -0.000776238 0.0
0.239462 0.00126596 0.0
0.232218 0.00334953 0.0
0.221257 0.00509271 0.0
0.185332 0.00773999 0.0
0.16147 0.00831814 0.0
0.205204 0.00687303 0.0
0 0 0.0
0.106842 -0.00504028 0.0
0.0602493 -0.00155262 0.0
0.163885 -0.0104198 0.0
0.139271 -0.0086044 0.0
0.13421 0.00696457 0.0
0 0 0.0
0.0557739 0.00128006 0.0
0.101341 0.0042957 0.0
0.205005 -0.00950485 0.0
0.185857 -0.0109085 0.0
0.230767 -0.00564794 0.0
0.219364 -0.00817338 0.0
0.236541 -0.00342794 0.0
0.239079 -0.000870244 0.0
0.237808 0.00147961 0.0
0.161871 0.00925077 0.0
0.203857 0.00796969 0.0
0.230045 0.0040055 0.0
0.219725 0.00589701 0.0
0.184552 0.00909936 0.0
0 0 0.0
0.0629339 -0.00157479 0.0
0.110759 -0.00521716 0.0
0.165072 -0.0114175 0.0
0.142391 -0.00907546 0.0
0.104707 0.00461107 0.0
0.136805 0.00780251 0.0
0 0 0.0
0.0584655 0.00135981 0.0
0.203485 -0.0108914 0.0
0.185429 -0.0121803 0.0
0.228353 -0.00652889 0.0
0.217172 -0.00935606 0.0
0.234495 -0.00381901 0.0
0.236401 -0.000979685 0.0
0.234076 0.00190911 0.0
0.16279 0.0102054 0.0
0.227516 0.00468263 0.0
0.202434 0.0090331 0.0
0.216752 0.00725626 0.0
0.183652 0.010586 0.0
0 0 0.0
0.115259 -0.00513747 0.0
0.0659675 -0.0014936 0.0
0.167146 -0.0121277 0.0
0.145953 -0.00919418 0.0
0.107982 0.0047015 0.0
0.139626 0.00819758 0.0
0 0 0.0
0.0609262 0.00142189 0.0
0.185303 -0.0131491 0.0
0.201936 -0.0121157 0.0
0.225578 -0.00740229 0.0
0.231496 -0.00433672 0.0
0.214782 -0.0104525 0.0
0.233302 -0.00109859 0.0
0.231009 0.00217804 0.0
0.224618 0.00533512 0.0
0.230466 -0.00296186 0.0
0.164106 0.0107458 0.0
0.214214 0.0081874 0.0
0.200139 0.0104042 0.0
0.183294 0.0112523 0.0
0 0 0.0
0.118968 -0.00488511 0.0
0.0687838 -0.00144457 0.0
0.168908 -0.01223 0.0
0.149795 -0.00895991 0.0
0.111686 0.00456544 0.0
0.14232 0.00826013 0.0
0 0 0.0
0.063428 0.0013312 0.0
0.185549 -0.0136674 0.0
0.200484 -0.0130391 0.0
0.222526 -0.00820122 0.0
0.212292 -0.0113286 0.0
0.226523 -0.00504175 0.0
0.230102 0.000585173 0.0
0.225767 0.00409187 0.0
0.217557 0.00734297 0.0
0.227968 -0.00131316 0.0
0.16589 0.010811 0.0
0.205769 0.0100116 0.0
0.194892 0.0113835 0.0
0.183104 0.0118385 0.0
0 0 0.0
0.122875 -0.00446058 0.0
0.0713195 -0.00130536 0.0
0.171469 -0.0119221 0.0
0.153764 -0.00838803 0.0
0.146267 0.0078792 0.0
0.115357 0.00420919 0.0
0 0 0.0
0.0660315 0.00117592 0.0
0.186224 -0.0136553 0.0
0.199264 -0.0135246 0.0
0.222764 -0.00541724 0.0
0.209842 -0.0118562 0.0
0.21928 -0.00882042 0.0
0.225566 0.0024749 0.0
0.219429 0.00608003 0.0
0.209836 0.00916426 0.0
0.224023 -0.00149143 0.0
0.168075 0.0103481 0.0
0.197454 0.011239 0.0
0.183421 0.0116785 0.0
0 0 0.0
0.0733759 -0.0011565 0.0
0.126503 -0.00392634 0.0
0.157119 -0.00767726 0.0
0.187287 -0.0130911 0.0
0.174311 -0.0111824 0.0
0.149812 0.00714757 0.0
0.118781 0.00370043 0.0
0.0680262 0.00104714 0.0
0 0 0.0
0.207929 -0.0119583 0.0
0.19838 -0.0134895 0.0
0.219778 -0.0056274 0.0
0.216003 -0.00917458 0.0
0.207224 0.00920234 0.0
0.221716 0.00249112 0.0
0.215979 0.00619118 0.0
0.219964 -0.0017043 0.0
0.184114 0.0108927 0.0
0.171005 0.00913787 0.0
0.195884 0.0108351 0.0
0 0 0.0
0.0753617 -0.000950961 0.0
0.129967 -0.00331223 0.0
0.160808 -0.0066872 0.0
0.188337 -0.0123615 0.0
0.177915 -0.00984877 0.0
0.153203 0.00611808 0.0
0.122096 0.00297502 0.0
0.0697742 0.000836339 0.0
0 0 0.0
0.156373 0.00486624 0.0
0.206217 -0.0117388 0.0
0.197722 -0.0126632 0.0
0.211561 -0.00911944 0.0
0.216816 -0.00574322 0.0
0.20405 0.00841207 0.0
0.212582 0.00591897 0.0
0.217812 0.00229012 0.0
0.215958 -0.00195019 0.0
0.185159 0.00956133 0.0
0.173624 0.00768677 0.0
0.195127 0.00981739 0.0
0 0 0.0
0.0769948 -0.000782021 0.0
0.132677 -0.00276711 0.0
0.164182 -0.00570232 0.0
0.189885 -0.011102 0.0
0.180854 -0.00856519 0.0
0.0710108 0.000610346 0.0
0.124576 0.00225118 0.0
0 0 0.0
0.158628 0.00377134 0.0
0.204478 -0.0111022 0.0
0.197663 -0.0115743 0.0
0.208802 -0.00872556 0.0
0.21318 -0.00575543 0.0
0.202428 0.00747346 0.0
0.209394 0.00523613 0.0
0.212212 -0.0022662 0.0
0.212309 0.00158821 0.0
0.186034 0.0082915 0.0
0.176043 0.00601611 0.0
0.194659 0.00829607 0.0
0 0 0.0
0.0783885 -0.000658475 0.0
0.134899 -0.00232296 0.0
0.167484 -0.00464729 0.0
0.191905 -0.00933408 0.0
0.197825 -0.0102839 0.0
0.183532 -0.00730611 0.0
0.0719917 0.000387575 0.0
0.126451 0.00154636 0.0
0 0 0.0
0.16081 0.00251028 0.0
0.202669 -0.00980651 0.0
0.206843 -0.00827829 0.0
0.209899 -0.00566933 0.0
0.209659 -0.00253038 0.0
0.201027 0.00623727 0.0
0.206544 0.00419229 0.0
0.208981 0.00082858 0.0
0.17822 0.00426508 0.0
0.187258 0.00637994 0.0
0.194474 0.00644232 0.0
0 0 0.0
0.0795418 -0.000606168 0.0
0.136801 -0.00198707 0.0
0.169944 -0.0039427 0.0
0.193151 -0.00834537 0.0
0.198193 -0.00901258 0.0
0.185924 -0.00620877 0.0
0.0725831 0.000187887 0.0
0.127781 0.000891942 0.0
0 0 0.0
0.179576 0.00293977 0.0
0.12854 0.00033933 0.0
0.162568 0.00121812 0.0
0.201817 -0.00879759 0.0
0.205202 -0.00776463 0.0
0.205977 -0.00549432 0.0
0.207406 -0.00282725 0.0
0.206681 0.000138486 0.0
0.199653 0.00452235 0.0
0.203242 0.00229277 0.0
0.188642 0.00391852 0.0
0.194459 0.00474212 0.0
0.201312 -0.00803198 0.0
0 0 0.0
0.0805549 -0.000555903 0.0
0.17199 -0.003467 0.0
0.138403 -0.00180196 0.0
0.19868 -0.00793646 0.0
0.19496 -0.00696767 0.0
0.187965 -0.00539141 0.0
0.0728988 2.48463e-05 0.0
0 0 0.0
0.189388 0.00251899 0.0
0.180944 0.00142848 0.0
0.163547 0.00026495 0.0
0.0727838 -7.1097e-05 0.0
0.128895 -0.000134716 0.0
0.203572 -0.00720867 0.0
0.20436 -0.00545421 0.0
0.20487 -0.00328418 0.0
0.203321 -0.0036821 0.0
0.204717 -0.000620606 0.0
0.198602 0.00271547 0.0
0.201439 0.000827764 0.0
0.194468 0.00306997 0.0
0.200977 -0.00744241 0.0
0.0814389 -0.000562156 0.0
0 0 0.0
0.173463 -0.0032474 0.0
0.13982 -0.00175181 0.0
0.199192 -0.00717267 0.0
0.195977 -0.0064113 0.0
0.189711 -0.00489566 0.0
0 0 0.0
0.190058 0.000855605 0.0
0.181912 -7.25653e-05 0.0
0.163906 -0.000392596 0.0
0.0726167 -0.000180941 0.0
0.12883 -0.000500191 0.0
0.201956 -0.00669239 0.0
0.203025 -0.00547845 0.0
0.202053 -0.00411397 0.0
0.201823 -0.00207956 0.0
0.197777 0.000964903 0.0
0.199992 -0.000613234 0.0
0.194494 0.000725555 0.0
0.200792 -0.00702847 0.0
0 0 0.0
0.0824604 -0.000591012 0.0
0.175007 -0.00322887 0.0
0.141052 -0.00182849 0.0
0.191175 -0.0047352 0.0
0.199737 -0.0067888 0.0
0.197401 -0.00592361 0.0
0 0 0.0
0 0 0.0
0.190476 -0.000552784 0.0
0.182343 -0.00108457 0.0
0.164038 -0.00102896 0.0
0.128478 -0.000788182 0.0
0.0722337 -0.000276838 0.0
0.201219 -0.00662809 0.0
0.201694 -0.00567003 0.0
0.19908 -0.00168481 0.0
0.200724 -0.00475015 0.0
0.200384 -0.00309642 0.0
0.197136 -0.000634113 0.0
0.194439 -0.00080746 0.0
0.200788 -0.00678178 0.0
0.200709 -0.00696039 0.0
0.0835885 -0.000667934 0.0
0.142431 -0.00200975 0.0
0.176483 -0.00344634 0.0
0.192284 -0.00484807 0.0
0.200254 -0.00678254 0.0
0.198177 -0.00596328 0.0
0 0 0.0
0 0 0.0
0.182324 -0.0017315 0.0
0.190576 -0.00196213 0.0
0.127925 -0.000990918 0.0
0.16371 -0.0015905 0.0
0.0716901 -0.000342486 0.0
0.200375 -0.006246 0.0
0.19971 -0.0054825 0.0
0.194275 -0.00210787 0.0
0.19831 -0.00268484 0.0
0.199484 -0.00386764 0.0
0.196379 -0.00247849 0.0
0.200482 -0.0070919 0.0
0.200775 -0.00741886 0.0
0.200737 -0.00716705 0.0
0.0848662 -0.000815599 0.0
0.143989 -0.00233396 0.0
0.178105 -0.00400235 0.0
0.193508 -0.00523561 0.0
0.199318 -0.00644104 0.0
0 0 0.0
0 0 0.0
0.182025 -0.0025246 0.0
0.190423 -0.00287157 0.0
0.127115 -0.00119976 0.0
0.163129 -0.00197918 0.0
0.0710425 -0.000392411 0.0
0.198743 -0.00462618 0.0
0.198914 -0.00629006 0.0
0.19972 -0.00690482 0.0
0.193991 -0.00319469 0.0
0.197519 -0.00384039 0.0
0.195868 -0.00365116 0.0
0.190044 -0.00363415 0.0
0.200075 -0.00807104 0.0
0 0 0.0
0.200807 -0.00818033 0.0
0.200176 -0.0072135 0.0
0.201174 -0.00788137 0.0
0.0863089 -0.000984786 0.0
0.179469 -0.00459943 0.0
0.145957 -0.00289111 0.0
0.194951 -0.006174 0.0
0 0 0.0
0 0 0.0
0 0 0.0
0 0 0.0
0 0 0.0
0.070364 -0.000432344 0.0
0.162378 -0.00231566 0.0
0.181515 -0.00306901 0.0
0.126312 -0.00134507 0.0
0.197927 -0.00558464 0.0
0.198237 -0.00720315 0.0
0.199198 -0.00774508 0.0
0.195402 -0.00449651 0.0
0.193554 -0.00412881 0.0
0.196528 -0.00530319 0.0
0.193094 -0.00483557 0.0
0.189593 -0.00413319 0.0
0.199793 -0.00910165 0.0
0.200846 -0.009193 0.0
0 0 0.0
-0.000294554 0.000189236 0.0
0 0 0.0
-0.000831068 0.00897762 0.0
0.201574 -0.00896153 0.0
0.200779 -0.00801351 0.0
0.0882426 -0.0012379 0.0
0.181154 -0.00550163 0.0
0.148093 -0.00358358 0.0
0.196221 -0.00732041 0.0
0 0 0.0
0 0 0.0
0 0 0.0
-0.000731978 0.00647169 0.0
-0.000489857 0.00132436 0.0
-0.00122725 0.00125043 0.0
0 0 0.0
0.0695398 -0.000476132 0.0
0.161564 -0.00256057 0.0
0.180768 -0.00354324 0.0
0.125132 -0.00150181 0.0
0.197212 -0.00656892 0.0
0.197592 -0.00822128 0.0
0.1987 -0.00875603 0.0
0.1949 -0.00528448 0.0
0.195985 -0.00610719 0.0
0.192511 -0.00548249 0.0
0.188647 -0.00489455 0.0
0.199485 -0.0103462 0.0
0.200501 -0.0104057 0.0
0.201412 -0.0102746 0.0
0 0 0.0
-0.00133891 0.000508384 0.0
0 0 0.0
0 0 0.0
-0.00273659 0.0161729 0.0
-0.00306883 0.0126929 0.0
0.201943 -0.0100174 0.0
0.201523 -0.00941501 0.0
0.150362 -0.00438957 0.0
0.0904497 -0.00158461 0.0
0.183073 -0.00671993 0.0
0.197466 -0.00880851 0.0
0 0 0.0
-0.00201779 0.00530371 0.0
-0.00262667 0.00878775 0.0
-0.00228275 0.00341745 0.0
-0.00345738 0.00229687 0.0
0 0 0.0
0.0686628 -0.000516273 0.0
0.160473 -0.00283039 0.0
0.179822 -0.00396754 0.0
0.123948 -0.00163652 0.0
0.1965 -0.00757842 0.0
0.196921 -0.00933744 0.0
0.198164 -0.00994437 0.0
0.193966 -0.00649414 0.0
0.195404 -0.00688396 0.0
0.191696 -0.00621798 0.0
0.178793 -0.00438943 0.0
0.187745 -0.00547138 0.0
0.199153 -0.0115042 0.0
0.200708 -0.0115825 0.0
0.202036 -0.0116043 0.0
0 0 0.0
-0.00356744 0.000852025 0.0
0 0 0.0
0 0 0.0
0 0 0.0
0 0 0.0
-0.0061374 0.0126304 0.0
-0.000717717 0.0130613 0.0
-0.00263243 0.0189909 0.0
-0.00610342 0.0223943 0.0
-0.00570402 0.0176049 0.0
0 0 0.0
-7.14097e-05 0.0167712 0.0
0.202354 -0.0117229 0.0
0.198555 -0.010306 0.0
0 0 0.0
0.0935717 -0.00211936 0.0
0.153448 -0.00551717 0.0
0.185665 -0.00873365 0.0
0 0 0.0
0 0 0.0
-0.00505619 0.00823709 0.0
-0.00549461 0.005299 0.0
-0.00673862 0.00307015 0.0
0 0 0.0
0.0676545 -0.000555886 0.0
0.159047 -0.00312842 0.0
0.122622 -0.00176302 0.0
0.177763 -0.00469379 0.0
0.195745 -0.00863553 0.0
0.196356 -0.010246 0.0
0.197539 -0.0113143 0.0
0.193272 -0.00720388 0.0
0.194612 -0.00785911 0.0
0.190743 -0.00692578 0.0
0.186901 -0.00587761 0.0
0.201361 -0.0128189 0.0
0.198717 -0.0128088 0.0
0.200319 -0.0140631 0.0
0.202103 -0.014268 0.0
0.202903 -0.0141585 0.0
0 0 0.0
-0.00554603 0.000932957 0.0
-0.00026471 0.0172801 0.0