# vtk DataFile Version 3.0
Mesh NS-CD Problem
ASCII
DATASET UNSTRUCTURED_GRID
POINTS 10839 float
-2 0.3 0.0
-2 0.4 0.0
-2 0.35 0.0
-2 0.45 0.0
-2 0.5 0.0
-2 0.55 0.0
-2 0 0.0
-2 0.05 0.0
-2 0.85 0.0
-2 0.9 0.0
-2 0.1 0.0
-2 0.15 0.0
-2 0.25 0.0
-2 0.2 0.0
-1.96653 0.266667 0.0
-1.96524 0.415385 0.0
-1.96485 0.315 0.0
-1.96348 0.363636 0.0
-1.96414 0.464286 0.0
-2 0.6 0.0
-1.96538 0.584615 0.0
-1.96538 0.538462 0.0
-1.94979 0 0.0
-1.96653 0.0666666 0.0
-1.93306 0.0333333 0.0
-2 0.8 0.0
-2 0.75 0.0
-2 0.7 0.0
-2 0.65 0.0
-1.96249 0.7375 0.0
-1.96666 0.833333 0.0
-2 1 0.0
-2 0.95 0.0
-1.96249 0.8875 0.0
-1.96666 0.933333 0.0
-1.96234 0.1125 0.0
-1.96653 0.166667 0.0
-1.93724 0.225 0.0
-1.92971 0.28 0.0
-1.93048 0.380769 0.0
-1.93048 0.423077 0.0
-1.89958 0.3375 0.0
-1.9292 0.484203 0.0
-1.92117 0.530907 0.0
-1.96363 0.636364 0.0
-1.93076 0.576923 0.0
-1.89958 0 0.0
-1.88703 0.0375 0.0
-1.90963 0.08 0.0
-1.86611 0.0666666 0.0
-1.93749 0.775 0.0
-1.93635 0.672727 0.0
-1.92999 0.72 0.0
-1.93332 0.866667 0.0
-1.92856 0.821429 0.0
-1.94999 1 0.0
-1.92499 0.9625 0.0
-1.92499 0.925 0.0
-1.89998 0.9 0.0
-1.89958 0.125 0.0
-1.92827 0.178571 0.0
-1.89958 0.233333 0.0
-1.89045 0.290909 0.0
-1.86096 0.311538 0.0
-1.89241 0.392857 0.0
-1.89334 0.448489 0.0
-1.85655 0.357143 0.0
-1.89614 0.653846 0.0
-1.89427 0.504121 0.0
-1.8952 0.559753 0.0
-1.89614 0.615385 0.0
-1.84937 0 0.0
-1.83264 0.0333333 0.0
-1.85655 0.107143 0.0
-1.81172 0.075 0.0
-1.89998 0.766667 0.0
-1.89089 0.709091 0.0
-1.87498 0.85 0.0
-1.85998 0.79 0.0
-1.88748 0.8125 0.0
-1.89998 1 0.0
-1.88748 0.9625 0.0
-1.86664 0.933333 0.0
-1.85712 0.892857 0.0
-1.87448 0.15 0.0
-1.86611 0.194444 0.0
-1.83264 0.133333 0.0
-1.83264 0.2625 0.0
-1.82068 0.321429 0.0
-1.85664 0.404762 0.0
-1.85674 0.452381 0.0
-1.85683 0.5 0.0
-1.81184 0.375 0.0
-1.85712 0.642857 0.0
-1.85693 0.547619 0.0
-1.85702 0.595238 0.0
-1.79917 0 0.0
-1.78482 0.0357143 0.0
-1.79917 0.116667 0.0
-1.76569 0.0666666 0.0
-1.85452 0.745455 0.0
-1.82689 0.692308 0.0
-1.81815 0.781818 0.0
-1.82497 0.825 0.0
-1.84997 1 0.0
-1.8333 0.958333 0.0
-1.81247 0.8875 0.0
-1.81247 0.925 0.0
-1.81742 0.218182 0.0
-1.82427 0.175 0.0
-1.77634 0.145455 0.0
-1.79144 0.242308 0.0
-1.78482 0.285714 0.0
-1.77469 0.332653 0.0
-1.81215 0.529762 0.0
-1.81194 0.422619 0.0
-1.81203 0.470238 0.0
-1.76714 0.392857 0.0
-1.81234 0.625 0.0
-1.79732 0.571429 0.0
-1.74896 0 0.0
-1.73222 0.0333333 0.0
-1.75398 0.105 0.0
-1.71883 0.07 0.0
-1.79227 0.730769 0.0
-1.78007 0.679121 0.0
-1.75765 0.769231 0.0
-1.78178 0.818182 0.0
-1.78996 0.86 0.0
-1.79996 1 0.0
-1.78568 0.964286 0.0
-1.76663 0.922222 0.0
-1.76569 0.1875 0.0
-1.73222 0.15 0.0
-1.74896 0.25 0.0
-1.73714 0.304762 0.0
-1.76743 0.537202 0.0
-1.72869 0.343878 0.0
-1.76732 0.485119 0.0
-1.76723 0.440476 0.0
-1.72243 0.410714 0.0
-1.76757 0.607143 0.0
-1.69875 0 0.0
-1.68369 0.035 0.0
-1.69875 0.1125 0.0
-1.66528 0.075 0.0
-1.74341 0.708974 0.0
-1.73324 0.665934 0.0
-1.70441 0.74478 0.0
-1.71423 0.785714 0.0
-1.72303 0.826923 0.0
-1.74541 0.854545 0.0
-1.74541 0.890909 0.0
-1.74996 1 0.0
-1.73745 0.9625 0.0
-1.71359 0.927273 0.0
-1.68716 0.153846 0.0
-1.7131 0.214286 0.0
-1.70725 0.275 0.0
-1.69712 0.321939 0.0
-1.72279 0.589286 0.0
-1.72261 0.5 0.0
-1.7227 0.544643 0.0
-1.6827 0.355102 0.0
-1.67773 0.428571 0.0
-1.70763 0.464286 0.0
-1.70369 0.62449 0.0
-1.64854 0 0.0
-1.63181 0.0375 0.0
-1.64137 0.142857 0.0
-1.61764 0.0769231 0.0
-1.69458 0.703846 0.0
-1.67471 0.657437 0.0
-1.66143 0.727637 0.0
-1.67125 0.768571 0.0
-1.67851 0.821429 0.0
-1.68841 0.861538 0.0
-1.70904 0.890909 0.0
-1.69995 1 0.0
-1.68176 0.963636 0.0
-1.67267 0.927273 0.0
-1.65427 0.187143 0.0
-1.66718 0.231429 0.0
-1.66554 0.3 0.0
-1.67802 0.571429 0.0
-1.67792 0.523809 0.0
-1.6367 0.366327 0.0
-1.63682 0.423469 0.0
-1.62568 0.502976 0.0
-1.6629 0.470238 0.0
-1.65254 0.618367 0.0
-1.6059 0.307143 0.0
-1.59833 0 0.0
-1.58288 0.0384615 0.0
-1.60563 0.169643 0.0
-1.58179 0.112271 0.0
-1.56964 0.0714286 0.0
-1.64574 0.690385 0.0
-1.62827 0.751429 0.0
-1.63371 0.791071 0.0
-1.64279 0.857143 0.0
-1.65378 0.896154 0.0
-1.64994 1 0.0
-1.6363 0.963636 0.0
-1.61916 0.930769 0.0
-1.61345 0.209107 0.0
-1.62126 0.248571 0.0
-1.56989 0.196429 0.0
-1.63324 0.553571 0.0
-1.58846 0.535714 0.0
-1.59408 0.361905 0.0
-1.59161 0.402211 0.0
-1.58832 0.464286 0.0
-1.61504 0.598581 0.0
-1.59683 0.64359 0.0
-1.57899 0.274107 0.0
-1.56176 0.322381 0.0
-1.54812 0 0.0
-1.53378 0.0357143 0.0
-1.54593 0.147619 0.0
-1.53385 0.0732143 0.0
-1.53393 0.110714 0.0
-1.58522 0.704286 0.0
-1.58709 0.745 0.0
-1.58896 0.785714 0.0
-1.60695 0.830357 0.0
-1.60707 0.892857 0.0
-1.59993 1 0.0
-1.58454 0.965385 0.0
-1.57135 0.928571 0.0
-1.55209 0.241071 0.0
-1.5291 0.198214 0.0
-1.56936 0.570918 0.0
-1.54369 0.517857 0.0
-1.5464 0.380952 0.0
-1.54564 0.427721 0.0
-1.54488 0.47449 0.0
-1.55026 0.606122 0.0
-1.54222 0.677143 0.0
-1.52943 0.282857 0.0
-1.52143 0.33619 0.0
-1.49792 0 0.0
-1.49802 0.05 0.0
-1.49822 0.15 0.0
-1.49312 0.1 0.0
-1.5423 0.717143 0.0
-1.54419 0.767857 0.0
-1.54727 0.819048 0.0
-1.57122 0.861905 0.0
-1.53553 0.914286 0.0
-1.54992 1 0.0
-1.53563 0.964286 0.0
-1.49842 0.25 0.0
-1.48831 0.2 0.0
-1.5214 0.558929 0.0
-1.49891 0.5 0.0
-1.49871 0.4 0.0
-1.47631 0.45 0.0
-1.49911 0.6 0.0
-1.49921 0.65 0.0
-1.49931 0.7 0.0
-1.48111 0.35 0.0
-1.48351 0.3 0.0
-1.44771 0 0.0
-1.44782 0.05 0.0
-1.44804 0.15 0.0
-1.44793 0.1 0.0
-1.49941 0.75 0.0
-1.49951 0.8 0.0
-1.49981 0.95 0.0
-1.49961 0.85 0.0
-1.49971 0.9 0.0
-1.49991 1 0.0
-1.44826 0.25 0.0
-1.43815 0.2 0.0
-1.47151 0.55 0.0
-1.44881 0.5 0.0
-1.44859 0.4 0.0
-1.42619 0.45 0.0
-1.44913 0.65 0.0
-1.44902 0.6 0.0
-1.44935 0.75 0.0
-1.44924 0.7 0.0
-1.43972 0.35 0.0
-1.43336 0.3 0.0
-1.3975 0 0.0
-1.39762 0.05 0.0
-1.39786 0.15 0.0
-1.39274 0.1 0.0
-1.44957 0.85 0.0
-1.44946 0.8 0.0
-1.4523 0.95 0.0
-1.44968 0.9 0.0
-1.4499 1 0.0
-1.3981 0.25 0.0
-1.38798 0.2 0.0
-1.42141 0.55 0.0
-1.3987 0.5 0.0
-1.39834 0.35 0.0
-1.37845 0.4 0.0
-1.37607 0.45 0.0
-1.40784 0.65 0.0
-1.39894 0.6 0.0
-1.41185 0.75 0.0
-1.39918 0.7 0.0
-1.38322 0.3 0.0
-1.34729 0 0.0
-1.34492 0.05 0.0
-1.34018 0.15 0.0
-1.34255 0.1 0.0
-1.40707 0.85 0.0
-1.39941 0.8 0.0
-1.39977 0.95 0.0
-1.39965 0.9 0.0
-1.39989 1 0.0
-1.33781 0.2 0.0
-1.33544 0.25 0.0
-1.37131 0.55 0.0
-1.34859 0.5 0.0
-1.33833 0.4 0.0
-1.3307 0.35 0.0
-1.32595 0.45 0.0
-1.34885 0.6 0.0
-1.36655 0.65 0.0
-1.36179 0.75 0.0
-1.34911 0.7 0.0
-1.33307 0.3 0.0
-1.29708 0 0.0
-1.29722 0.05 0.0
-1.2975 0.15 0.0
-1.29236 0.1 0.0
-1.35703 0.85 0.0
-1.34937 0.8 0.0
-1.34988 1 0.0
-1.34962 0.9 0.0
-1.35226 0.95 0.0
-1.28528 0.25 0.0
-1.28764 0.2 0.0
-1.28931 0.35 0.0
-1.32121 0.55 0.0
-1.29848 0.5 0.0
-1.28709 0.45 0.0
-1.2982 0.4 0.0
-1.29876 0.6 0.0
-1.31647 0.65 0.0
-1.29918 0.75 0.0
-1.29904 0.7 0.0
-1.28292 0.3 0.0
-1.24687 0 0.0
-1.24702 0.05 0.0
-1.24717 0.1 0.0
-1.24732 0.15 0.0
-1.29946 0.85 0.0
-1.29932 0.8 0.0
-1.29987 1 0.0
-1.29974 0.95 0.0
-1.30462 0.9 0.0
-1.24762 0.25 0.0
-1.23747 0.2 0.0
-1.24792 0.35 0.0
-1.22807 0.4 0.0
-1.27111 0.55 0.0
-1.24837 0.5 0.0
-1.24822 0.45 0.0
-1.24867 0.6 0.0
-1.26639 0.65 0.0
-1.26167 0.75 0.0
-1.24897 0.7 0.0
-1.23277 0.3 0.0
-1.19667 0 0.0
-1.19683 0.05 0.0
-1.18964 0.15 0.0
-1.19198 0.1 0.0
-1.25695 0.85 0.0
-1.24927 0.8 0.0
-1.25223 0.95 0.0
-1.24987 1 0.0
-1.24957 0.9 0.0
-1.1873 0.2 0.0
-1.18496 0.25 0.0
-1.18028 0.35 0.0
-1.17794 0.4 0.0
-1.1981 0.45 0.0
-1.19842 0.55 0.0
-1.19826 0.5 0.0
-1.19858 0.6 0.0
-1.19874 0.65 0.0
-1.19906 0.75 0.0
-1.1989 0.7 0.0
-1.18262 0.3 0.0
-1.14646 0 0.0
-1.14663 0.05 0.0
-1.1418 0.1 0.0
-1.13713 0.2 0.0
-1.14697 0.15 0.0
-1.20691 0.85 0.0
-1.20926 0.8 0.0
-1.20221 0.95 0.0
-1.19986 1 0.0
-1.20456 0.9 0.0
-1.13997 0.3 0.0
-1.14731 0.25 0.0
-1.13781 0.4 0.0
-1.13014 0.35 0.0
-1.12548 0.45 0.0
-1.14815 0.5 0.0
-1.15962 0.55 0.0
-1.14849 0.6 0.0
-1.15745 0.65 0.0
-1.16155 0.75 0.0
-1.14917 0.8 0.0
-1.14883 0.7 0.0
-1.09625 0 0.0
-1.09661 0.1 0.0
-1.09393 0.05 0.0
-1.09697 0.2 0.0
-1.08929 0.15 0.0
-1.15687 0.85 0.0
-1.14985 1 0.0
-1.15219 0.95 0.0
-1.14951 0.9 0.0
-1.09733 0.3 0.0
-1.08465 0.25 0.0
-1.09769 0.4 0.0
-1.08 0.35 0.0
-1.08661 0.45 0.0
-1.09804 0.5 0.0
-1.12082 0.55 0.0
-1.10916 0.8 0.0
-1.10629 0.7 0.0
-1.0984 0.6 0.0
-1.11616 0.65 0.0
-1.11149 0.75 0.0
-1.04604 0 0.0
-1.04623 0.05 0.0
-1.04642 0.1 0.0
-1.0468 0.2 0.0
-1.03911 0.15 0.0
-1.09948 0.9 0.0
-1.0993 0.85 0.0
-1.09984 1 0.0
-1.09966 0.95 0.0
-1.04718 0.3 0.0
-1.03449 0.25 0.0
-1.04756 0.4 0.0
-1.02986 0.35 0.0
-1.04775 0.45 0.0
-1.04794 0.5 0.0
-1.04813 0.55 0.0
-1.05911 0.8 0.0
-1.04831 0.6 0.0
-1.06376 0.7 0.0
-1.0485 0.65 0.0
-1.04888 0.75 0.0
-0.995833 0 0.0
-0.991231 0.1 0.0
-0.996033 0.05 0.0
-0.986629 0.2 0.0
-0.98893 0.15 0.0
-1.05447 0.9 0.0
-1.04926 0.85 0.0
-1.04983 1 0.0
-1.04964 0.95 0.0
-0.984328 0.25 0.0
-0.99703 0.3 0.0
-0.997429 0.4 0.0
-0.997628 0.45 0.0
-0.979726 0.35 0.0
-0.997827 0.5 0.0
-0.998027 0.55 0.0
-0.998226 0.6 0.0
-0.961416 0.475 0.0
-1.00907 0.8 0.0
-0.998426 0.65 0.0
-0.998625 0.7 0.0
-1.01138 0.75 0.0
-0.945625 0 0.0
-0.946044 0.1 0.0
-0.943334 0.05 0.0
-0.946463 0.2 0.0
-0.938752 0.15 0.0
-1.00444 0.9 0.0
-1.00675 0.85 0.0
-0.999821 1 0.0
-1.00213 0.95 0.0
-0.93417 0.25 0.0
-0.946881 0.3 0.0
-0.9473 0.4 0.0
-0.929588 0.35 0.0
-0.925005 0.45 0.0
-0.960371 0.525 0.0
-0.959325 0.575 0.0
-0.958279 0.625 0.0
-0.922714 0.5 0.0
-0.959017 0.8 0.0
-0.957233 0.675 0.0
-0.952999 0.7125 0.0
-0.948766 0.75 0.0
-0.895417 0 0.0
-0.895855 0.1 0.0
-0.893136 0.05 0.0
-0.896294 0.2 0.0
-0.888573 0.15 0.0
-0.949184 0.85 0.0
-0.954415 0.9 0.0
-0.949812 1 0.0
-0.949603 0.95 0.0
-0.884011 0.25 0.0
-0.896733 0.3 0.0
-0.874887 0.45 0.0
-0.879449 0.35 0.0
-0.897171 0.4 0.0
-0.920423 0.55 0.0
-0.918132 0.6 0.0
-0.915841 0.65 0.0
-0.872606 0.5 0.0
-0.908968 0.8 0.0
-0.91355 0.7 0.0
-0.898707 0.75 0.0
-0.845208 0 0.0
-0.845438 0.05 0.0
-0.845667 0.1 0.0
-0.845896 0.15 0.0
-0.833853 0.25 0.0
-0.846126 0.2 0.0
-0.899146 0.85 0.0
-0.904386 0.9 0.0
-0.899584 0.95 0.0
-0.899804 1 0.0
-0.838062 0.35 0.0
[...]
POINT_DATA 10839
VECTORS Velocity float
0.21 0 0.0
0.24 0 0.0
0.2275 0 0.0
0.2475 0 0.0
0.25 0 0.0
0.2475 0 0.0
0 0 0.0
0.0475 0 0.0
0.1275 0 0.0
0.09 0 0.0
0.09 0 0.0
0.1275 0 0.0
0.1875 0 0.0
0.16 0 0.0
0.195557 -2.43287e-05 0.0
0.242841 -3.31896e-05 0.0
0.215776 -2.89584e-05 0.0
0.231406 -3.26459e-05 0.0
0.248725 -3.53377e-05 0.0
0.24 0 0.0
0.24284 -3.31152e-05 0.0
0.24852 -3.40314e-05 0.0
0 0 0.0
0.0622239 -4.23959e-06 0.0
0.032227 -2.80261e-06 0.0
0.16 0 0.0
0.1875 0 0.0
0.21 0 0.0
0.2275 0 0.0
0.193592 -2.73086e-05 0.0
0.138887 -1.51618e-05 0.0
0 0 0.0
0.0475 0 0.0
0.0998415 -1.05309e-05 0.0
0.0622205 -4.28712e-06 0.0
0.0998462 -1.10038e-05 0.0
0.138891 -1.52969e-05 0.0
0.17438 -3.83473e-05 0.0
0.201606 -5.25333e-05 0.0
0.235787 -6.41451e-05 0.0
0.244085 -6.71206e-05 0.0
0.223602 -8.59983e-05 0.0
0.249751 -7.01279e-05 0.0
0.249044 -7.81464e-05 0.0
0.231404 -3.3176e-05 0.0
0.244081 -6.6326e-05 0.0
0 0 0.0
0.0361083 -5.42474e-06 0.0
0.0736128 -1.51652e-05 0.0
0.0622494 -1.66239e-05 0.0
0.17437 -3.77829e-05 0.0
0.220162 -5.25139e-05 0.0
0.201594 -5.26114e-05 0.0
0.115548 -2.26525e-05 0.0
0.146676 -3.51043e-05 0.0
0 0 0.0
0.0360873 -3.65302e-06 0.0
0.069366 -1.1854e-05 0.0
0.0899833 -2.3535e-05 0.0
0.109391 -3.18407e-05 0.0
0.146692 -3.44257e-05 0.0
0.178902 -6.43216e-05 0.0
0.206293 -8.41186e-05 0.0
0.214501 -0.000113386 0.0
0.238527 -0.000100572 0.0
0.24735 -0.000104731 0.0
0.229607 -0.000128041 0.0
0.226323 -9.03647e-05 0.0
0.249983 -0.000105249 0.0
0.246426 -0.000102394 0.0
0.23668 -9.64025e-05 0.0
0 0 0.0
0.0322509 -6.13621e-06 0.0
0.095697 -3.61751e-05 0.0
0.0694299 -2.72707e-05 0.0
0.178876 -6.33423e-05 0.0
0.206269 -8.47547e-05 0.0
0.127476 -4.88357e-05 0.0
0.165873 -8.01849e-05 0.0
0.152325 -5.74026e-05 0.0
0 0 0.0
0.0360794 -5.25405e-06 0.0
0.0621955 -1.64473e-05 0.0
0.0956295 -3.68582e-05 0.0
0.127525 -4.93078e-05 0.0
0.156661 -7.16483e-05 0.0
0.115601 -5.66332e-05 0.0
0.193627 -0.000118228 0.0
0.218142 -0.000149642 0.0
0.24094 -0.000136434 0.0
0.247738 -0.000141499 0.0
0.25 -0.000143046 0.0
0.234398 -0.000173261 0.0
0.229576 -0.000126274 0.0
0.247727 -0.000141188 0.0
0.240919 -0.000136196 0.0
0 0 0.0
0.0344878 -8.50444e-06 0.0
0.103122 -5.56641e-05 0.0
0.062304 -2.7637e-05 0.0
0.189727 -0.000100452 0.0
0.212988 -0.000140371 0.0
0.170533 -0.000108812 0.0
0.144329 -8.07449e-05 0.0
0 0 0.0
0.0398977 -9.05298e-06 0.0
0.0997856 -5.05877e-05 0.0
0.0693206 -2.68221e-05 0.0
0.170625 -0.000108936 0.0
0.144422 -8.24901e-05 0.0
0.124378 -8.36863e-05 0.0
0.18365 -0.000137762 0.0
0.204132 -0.000164967 0.0
0.222039 -0.000194271 0.0
0.249109 -0.000187879 0.0
0.244027 -0.000182865 0.0
0.24912 -0.000187886 0.0
0.238551 -0.000220688 0.0
0.234352 -0.000172248 0.0
0.244882 -0.000198081 0.0
0 0 0.0
0.0322926 -9.01268e-06 0.0
0.0940753 -5.85433e-05 0.0
0.0652187 -3.49911e-05 0.0
0.196695 -0.000150658 0.0
0.217871 -0.000185147 0.0
0.177437 -0.00015296 0.0
0.148689 -0.00010668 0.0
0.120328 -7.46582e-05 0.0
0 0 0.0
0.0343903 -8.58704e-06 0.0
0.0716433 -3.50924e-05 0.0
0.152425 -0.000119674 0.0
0.127616 -0.000103987 0.0
0.187579 -0.000170941 0.0
0.211952 -0.000212976 0.0
0.248605 -0.000233333 0.0
0.225686 -0.000241331 0.0
0.249783 -0.000235024 0.0
0.246474 -0.000231059 0.0
0.242065 -0.000270515 0.0
0.23849 -0.000220075 0.0
0 0 0.0
0.0338752 -1.13056e-05 0.0
0.0999948 -7.82694e-05 0.0
0.069547 -4.66308e-05 0.0
0.206259 -0.000199391 0.0
0.222404 -0.000232473 0.0
0.189974 -0.00020727 0.0
0.168252 -0.000167358 0.0
0.143002 -0.00012834 0.0
0.124193 -9.46599e-05 0.0
0.0970828 -6.35629e-05 0.0
0 0 0.0
0.0360201 -1.09457e-05 0.0
0.0673135 -3.7631e-05 0.0
0.130336 -0.000125753 0.0
0.168484 -0.000168159 0.0
0.199474 -0.000219422 0.0
0.218379 -0.000257562 0.0
0.241992 -0.000271187 0.0
0.25 -0.000283082 0.0
0.247988 -0.000279782 0.0
0.229082 -0.000290678 0.0
0.244938 -0.000322282 0.0
0.248741 -0.000297094 0.0
0.234444 -0.000277902 0.0
0 0 0.0
0.0362339 -1.45878e-05 0.0
0.122661 -0.000128903 0.0
0.0712318 -5.51972e-05 0.0
0.208348 -0.00024401 0.0
0.225125 -0.000290486 0.0
0.198046 -0.000253424 0.0
0.177723 -0.000209817 0.0
0.146524 -0.000154679 0.0
0.11913 -0.000108022 0.0
0.0970495 -7.21443e-05 0.0
0 0 0.0
0.0349377 -1.2263e-05 0.0
0.0672759 -4.2394e-05 0.0
0.152303 -0.000175888 0.0
0.178019 -0.000214762 0.0
0.210117 -0.000271729 0.0
0.244858 -0.000322211 0.0
0.24942 -0.000331007 0.0
0.232227 -0.000342094 0.0
0.244198 -0.000366795 0.0
0.249988 -0.000391552 0.0
0.249132 -0.000347831 0.0
0.235912 -0.000332993 0.0
0.212965 -0.000331995 0.0
0 0 0.0
0.0371632 -1.7197e-05 0.0
0.141113 -0.000179516 0.0
0.0999612 -0.000108531 0.0
0.0666029 -5.38157e-05 0.0
0.213627 -0.000297046 0.0
0.186605 -0.000258622 0.0
0.165082 -0.00021044 0.0
0.122238 -0.000129622 0.0
0.0928636 -7.91799e-05 0.0
0 0 0.0
0.0349077 -1.37002e-05 0.0
0.0642241 -4.50443e-05 0.0
0.1656 -0.000224965 0.0
0.18697 -0.000264392 0.0
0.158127 -0.000235447 0.0
0.247091 -0.000376708 0.0
0.248691 -0.000433115 0.0
0.231053 -0.000384261 0.0
0.240527 -0.0004101 0.0
0.248758 -0.000432738 0.0
0.240202 -0.000383218 0.0
0.229254 -0.00037657 0.0
0.199185 -0.000325061 0.0
0.218637 -0.000388555 0.0
0 0 0.0
0.0346513 -1.68789e-05 0.0
0.126174 -0.000174532 0.0
0.0681821 -6.08348e-05 0.0
0.0988243 -0.000118232 0.0
0.20808 -0.000339923 0.0
0.189756 -0.000296366 0.0
0.168122 -0.000245988 0.0
0.140616 -0.000178181 0.0
0.0954056 -9.42404e-05 0.0
0 0 0.0
0.0332514 -1.4028e-05 0.0
0.0660526 -5.36575e-05 0.0
0.183227 -0.000307185 0.0
0.159267 -0.000263559 0.0
0.244897 -0.000446597 0.0
0.24966 -0.000490273 0.0
0.235963 -0.000449744 0.0
0.244859 -0.000475374 0.0
0.249378 -0.000489069 0.0
0.238619 -0.000452244 0.0
0.218417 -0.000408789 0.0
0.203108 -0.000379323 0.0
0.223373 -0.000444303 0.0
0 0 0.0
0.0478094 -3.37074e-05 0.0
0.127926 -0.00019904 0.0
0.0904294 -0.000111034 0.0
0.202605 -0.000365468 0.0
0.177962 -0.000300607 0.0
0.147883 -0.000225614 0.0
0.118715 -0.000147926 0.0
0.0780227 -7.91359e-05 0.0
0 0 0.0
0.0342291 -1.65345e-05 0.0
0.187836 -0.000363758 0.0
0.160406 -0.000293301 0.0
0.246451 -0.00051039 0.0
0.25 -0.000549923 0.0
0.240142 -0.000519271 0.0
0.247578 -0.000572479 0.0
0.239858 -0.000518902 0.0
0.227289 -0.000480478 0.0
0.209725 -0.0004275 0.0
0.227727 -0.000504245 0.0
0.210294 -0.00044539 0.0
0 0 0.0
0.0478737 -3.76038e-05 0.0
0.128023 -0.000222236 0.0
0.0905127 -0.000122102 0.0
0.187165 -0.000361926 0.0
0.159613 -0.000283745 0.0
0.0471946 -3.30523e-05 0.0
0.127078 -0.000196345 0.0
0.0895836 -0.000108718 0.0
0 0 0.0
0.187913 -0.000408808 0.0
0.160498 -0.000328304 0.0
0.247419 -0.000579039 0.0
0.249999 -0.000619604 0.0
0.240175 -0.000585432 0.0
0.247596 -0.000643593 0.0
0.227242 -0.000541008 0.0
0.239825 -0.000584335 0.0
0.187088 -0.00040662 0.0
0.209662 -0.000481022 0.0
0.227768 -0.000553556 0.0
0.21036 -0.000500662 0.0
0 0 0.0
0.0479444 -4.12341e-05 0.0
0.12813 -0.000247129 0.0
0.0906256 -0.000136951 0.0
0.126981 -0.000220063 0.0
0.159524 -0.000318405 0.0
0.0471345 -3.66564e-05 0.0
0.0894925 -0.00012085 0.0
0 0 0.0
0.188001 -0.000456565 0.0
0.160601 -0.000366014 0.0
0.247401 -0.000649918 0.0
0.249999 -0.00069417 0.0
0.227813 -0.000607236 0.0
0.240226 -0.000684688 0.0
0.247614 -0.00072033 0.0
0.227196 -0.000592314 0.0
0.239788 -0.000654595 0.0
0.187024 -0.000440993 0.0
0.20959 -0.000538164 0.0
0.210434 -0.000559696 0.0
0 0 0.0
0.0480274 -4.58593e-05 0.0
0.12827 -0.000278024 0.0
0.0907406 -0.000151296 0.0
0.126891 -0.000240391 0.0
0.159424 -0.000354576 0.0
0.0470616 -4.07183e-05 0.0
0.0893918 -0.000133422 0.0
0 0 0.0
0.160716 -0.000406066 0.0
0.188125 -0.000520566 0.0
0.247381 -0.000725917 0.0
0.249998 -0.000774247 0.0
0.240261 -0.000747731 0.0
0.227898 -0.000702377 0.0
0.247636 -0.000801742 0.0
0.239745 -0.000729476 0.0
0.227147 -0.000648332 0.0
0.186929 -0.000490556 0.0
0.209509 -0.000598919 0.0
0.210517 -0.000623581 0.0
0 0 0.0
0.048111 -5.06191e-05 0.0
0.128385 -0.00030321 0.0
0.0908676 -0.000166967 0.0
0.126774 -0.000266042 0.0
0.159312 -0.000393679 0.0
0 0 0.0
0.0892792 -0.000147573 0.0
0.0469881 -4.47424e-05 0.0
0.188237 -0.000579131 0.0
0.160844 -0.000450163 0.0
0.227957 -0.000765947 0.0
0.247358 -0.000808376 0.0
0.249998 -0.000861071 0.0
0.247654 -0.000870487 0.0
0.240299 -0.000813693 0.0
0.239699 -0.000810682 0.0
0.22708 -0.000720931 0.0
0.186794 -0.000557442 0.0
0.209419 -0.000665418 0.0
0.210611 -0.000691893 0.0
0 0 0.0
0.0482061 -5.5826e-05 0.0
0.0909935 -0.000181993 0.0
0.128533 -0.00033458 0.0
0.126623 -0.000298018 0.0
0.159188 -0.000435727 0.0
0 0 0.0
0.0468999 -4.92072e-05 0.0
0.089169 -0.000160611 0.0
0.188331 -0.000624758 0.0
0.160987 -0.000498173 0.0
0.228019 -0.000834278 0.0
0.240372 -0.000940281 0.0
0.247333 -0.000897872 0.0
0.249997 -0.000954707 0.0
0.247675 -0.000942895 0.0
0.239646 -0.000898634 0.0
0.227006 -0.000799759 0.0
0.186704 -0.000601718 0.0
0.209318 -0.000736324 0.0
0.210715 -0.000766902 0.0
0 0 0.0
0.048312 -6.13229e-05 0.0
0.128724 -0.000375598 0.0
0.0911637 -0.00020336 0.0
0.126499 -0.00032396 0.0
0.159049 -0.000481286 0.0
0.0468119 -5.34401e-05 0.0
0 0 0.0
0.0890204 -0.000178234 0.0
0.161146 -0.000550558 0.0
0.188502 -0.000707546 0.0
0.228138 -0.0009565 0.0
0.240432 -0.00104266 0.0
0.247702 -0.00104497 0.0
0.24729 -0.00103888 0.0
0.249996 -0.00105848 0.0
0.239587 -0.000996472 0.0
0.226892 -0.000914984 0.0
0.186538 -0.000680622 0.0
0.209206 -0.000814868 0.0
0.21083 -0.000848189 0.0
0 0 0.0
0.0484273 -6.7279e-05 0.0
0.0913344 -0.000223096 0.0
0.161321 -0.00060618 0.0
0.128881 -0.000407414 0.0
0.12634 -0.000356732 0.0
0.158927 -0.000520555 0.0
0.0467095 -5.90188e-05 0.0
0 0 0.0
0.0888844 -0.000194392 0.0
0.210937 -0.000923726 0.0
0.188619 -0.000763977 0.0
0.240484 -0.00112923 0.0
0.228235 -0.00106043 0.0
0.24775 -0.00120674 0.0
0.249995 -0.00117015 0.0
0.247264 -0.00112302 0.0
0.239522 -0.00110103 0.0
0.226813 -0.000993154 0.0
0.186426 -0.000732795 0.0
0.158726 -0.000585453 0.0
0.209082 -0.000898982 0.0
0 0 0.0
0.0915056 -0.000243937 0.0
0.0485633 -7.48105e-05 0.0
0.161475 -0.000657322 0.0
0.129113 -0.000457333 0.0
0.126163 -0.000393065 0.0
0 0 0.0
0.0465973 -6.48646e-05 0.0
0.0887034 -0.000215803 0.0
0.211056 -0.00100407 0.0
0.188828 -0.000866689 0.0
0.240541 -0.00122254 0.0
0.228344 -0.00117304 0.0
0.247776 -0.00130652 0.0
0.249992 -0.00129358 0.0
0.247236 -0.0012156 0.0
0.158576 -0.000630363 0.0
0.208966 -0.000976575 0.0
0.239448 -0.00121432 0.0
0.226727 -0.00107831 0.0
0.186265 -0.000808441 0.0
0 0 0.0
0.0486971 -8.15793e-05 0.0
0.0917101 -0.000268069 0.0
0.161687 -0.000724555 0.0
0.129341 -0.000504545 0.0
0.08852 -0.000236681 0.0
0.125938 -0.000438867 0.0
0 0 0.0
0.0464682 -7.17505e-05 0.0
0.211208 -0.00110922 0.0
0.189021 -0.000958135 0.0
0.240618 -0.00135069 0.0
0.228464 -0.00129726 0.0
0.247806 -0.00141337 0.0
0.249991 -0.00142996 0.0
0.247176 -0.00140009 0.0
0.158374 -0.00069367 0.0
0.239368 -0.00134077 0.0
0.20884 -0.00105803 0.0
0.226573 -0.0012318 0.0
0.186038 -0.000915241 0.0
0 0 0.0
0.0919615 -0.000298136 0.0
0.0488514 -8.95972e-05 0.0
0.161969 -0.000814855 0.0
0.129591 -0.000556487 0.0
0.0883401 -0.000258119 0.0
0.12572 -0.000484253 0.0
0 0 0.0
0.0463312 -7.91345e-05 0.0
0.189231 -0.00106022 0.0
0.211377 -0.00122652 0.0
0.240704 -0.00149433 0.0
0.247848 -0.00155872 0.0
0.228597 -0.00143378 0.0
0.249987 -0.00157624 0.0
0.24713 -0.00154818 0.0
0.239279 -0.0014765 0.0
0.249556 -0.00169155 0.0
0.158149 -0.000763266 0.0
0.226441 -0.0013586 0.0
0.208623 -0.00119953 0.0
0.185888 -0.000983832 0.0
0 0 0.0
0.0921918 -0.000325672 0.0
0.0490326 -9.95834e-05 0.0
0.16218 -0.000883478 0.0
0.129867 -0.00061398 0.0
0.0881215 -0.000284196 0.0
0.125517 -0.000525909 0.0
0 0 0.0
0.0461893 -8.69515e-05 0.0
0.189465 -0.00117244 0.0
0.211564 -0.00135681 0.0
0.240793 -0.00164951 0.0
0.228743 -0.00158755 0.0
0.247911 -0.00180199 0.0
0.249159 -0.00168915 0.0
0.243767 -0.00163759 0.0
0.233385 -0.0015371 0.0
0.249979 -0.00182971 0.0
0.157904 -0.000839657 0.0
0.218019 -0.00139201 0.0
0.203214 -0.00125967 0.0
0.185614 -0.00110721 0.0
0 0 0.0
0.092468 -0.0003589 0.0
0.0492201 -0.000108898 0.0
0.162467 -0.000977582 0.0
0.130175 -0.000678882 0.0
0.125217 -0.000587655 0.0
0.08788 -0.000313601 0.0
0 0 0.0
0.0460172 -9.57775e-05 0.0
0.189725 -0.00129864 0.0
0.211771 -0.00150207 0.0
0.247957 -0.00198854 0.0
0.228904 -0.00175685 0.0
0.240899 -0.001825 0.0
0.247043 -0.00180379 0.0
0.239113 -0.00172431 0.0
0.226193 -0.00159328 0.0
0.249967 -0.00201878 0.0
0.157633 -0.000924712 0.0
0.208296 -0.00141194 0.0
0.185367 -0.0012183 0.0
0 0 0.0
0.0494175 -0.000119141 0.0
0.0927748 -0.000397168 0.0
0.130463 -0.000739733 0.0
0.190012 -0.00143793 0.0
0.162788 -0.00108322 0.0
0.124927 -0.000647046 0.0
0.0876139 -0.000346286 0.0
0.0458334 -0.000105926 0.0
0 0 0.0
0.229048 -0.00191248 0.0
0.212 -0.00166665 0.0
0.247998 -0.00215069 0.0
0.241008 -0.002022 0.0
0.226021 -0.00175148 0.0
0.246975 -0.00198738 0.0
0.238989 -0.00189803 0.0
0.249956 -0.00222738 0.0
0.1851 -0.00133692 0.0
0.157276 -0.00103342 0.0
0.208004 -0.00159544 0.0
0 0 0.0
0.0496464 -0.000132345 0.0
0.0931527 -0.000444614 0.0
0.130836 -0.000819629 0.0
0.190247 -0.00155931 0.0
0.163218 -0.00123348 0.0
0.124611 -0.000710854 0.0
0.0872929 -0.000385437 0.0
0.0456328 -0.000116655 0.0
0 0 0.0
0.124263 -0.000781912 0.0
0.229203 -0.00207678 0.0
0.212332 -0.00191435 0.0
0.241177 -0.00233586 0.0
0.248039 -0.00232267 0.0
0.22576 -0.00198702 0.0
0.238856 -0.00208619 0.0
0.246901 -0.00219111 0.0
0.249935 -0.00245782 0.0
0.184805 -0.00146556 0.0
0.156944 -0.0011371 0.0
0.207755 -0.00175378 0.0
0 0 0.0
0.0499 -0.000146617 0.0
0.0935378 -0.000495273 0.0
0.131252 -0.000913636 0.0
0.190594 -0.00173307 0.0
0.163626 -0.00137711 0.0
0.045407 -0.000130139 0.0
0.0869658 -0.000425715 0.0
0 0 0.0
0.123944 -0.000843253 0.0
0.229409 -0.00231008 0.0
0.212621 -0.00213233 0.0
0.24131 -0.00258944 0.0
0.248089 -0.00257213 0.0
0.225576 -0.00214703 0.0
0.238707 -0.00229188 0.0
0.249911 -0.00271371 0.0
0.246771 -0.0025206 0.0
0.184564 -0.00156561 0.0
0.156583 -0.00124488 0.0
0.207479 -0.00191932 0.0
0 0 0.0
0.0501802 -0.000163005 0.0
0.0939661 -0.000552758 0.0
0.131789 -0.00103804 0.0
0.191075 -0.00198764 0.0
0.212935 -0.00238176 0.0
0.164076 -0.00154389 0.0
0.0451756 -0.000142612 0.0
0.0866115 -0.000467373 0.0
0 0 0.0
0.123537 -0.000920675 0.0
0.229711 -0.00266256 0.0
0.241421 -0.00281948 0.0
0.248141 -0.00284849 0.0
0.249882 -0.00292574 0.0
0.225381 -0.00231267 0.0
0.23853 -0.00252068 0.0
0.246661 -0.00277459 0.0
0.156188 -0.00135939 0.0
0.184218 -0.00170988 0.0
0.207173 -0.0020969 0.0
0 0 0.0
0.0505165 -0.000184482 0.0
0.0944522 -0.000624559 0.0
0.132322 -0.00117184 0.0
0.191401 -0.002169 0.0
0.213278 -0.00265966 0.0
0.164581 -0.00173663 0.0
0.044907 -0.000156135 0.0
0.0862236 -0.000511098 0.0
0 0 0.0
0.155849 -0.00144689 0.0
0.085805 -0.000553497 0.0
0.123026 -0.0010109 0.0
0.229959 -0.00298336 0.0
0.241533 -0.00305969 0.0
0.248207 -0.00330422 0.0
0.249852 -0.00314815 0.0
0.246565 -0.00299064 0.0
0.225116 -0.00252762 0.0
0.238254 -0.00287025 0.0
0.183737 -0.0018973 0.0
0.206888 -0.0022619 0.0
0.230179 -0.00326208 0.0
0 0 0.0
0.0508772 -0.000209059 0.0
0.132922 -0.00133069 0.0
0.0950009 -0.000711342 0.0
0.213657 -0.00298817 0.0
0.19199 -0.00251154 0.0
0.165143 -0.00196195 0.0
0.0446013 -0.000170097 0.0
0 0 0.0
0.183417 -0.00201873 0.0
0.155388 -0.00156564 0.0
0.122539 -0.00109287 0.0
0.0442788 -0.000186539 0.0
0.0853494 -0.000598446 0.0
0.241685 -0.00340624 0.0
0.248237 -0.00358273 0.0
0.249789 -0.00347653 0.0
0.249733 -0.00374975 0.0
0.24645 -0.00321857 0.0
0.224813 -0.00276228 0.0
0.238008 -0.00314637 0.0
0.206574 -0.00242327 0.0
0.230398 -0.00357501 0.0
0.0512707 -0.000238587 0.0
0 0 0.0
0.13349 -0.00148572 0.0
0.0956222 -0.000812509 0.0
0.214065 -0.00336019 0.0
0.192386 -0.00275472 0.0
0.165771 -0.00222846 0.0
0 0 0.0
0.182959 -0.0021743 0.0
0.154784 -0.00170339 0.0
0.1221 -0.00115251 0.0
0.0439547 -0.000199638 0.0
0.084864 -0.000640689 0.0
0.241891 -0.00396709 0.0
0.248263 -0.00387653 0.0
0.249657 -0.00403646 0.0
0.2462 -0.0036831 0.0
0.224478 -0.00300677 0.0
0.237739 -0.00344166 0.0
0.206039 -0.00269281 0.0
0.230696 -0.00401055 0.0
0 0 0.0
0.0517404 -0.000276738 0.0
0.134237 -0.00170339 0.0
0.0962654 -0.000924625 0.0
0.166471 -0.00253639 0.0
0.214508 -0.00379241 0.0
0.193107 -0.00321477 0.0
0 0 0.0
0 0 0.0
0.182448 -0.00233695 0.0
0.154229 -0.00182001 0.0
0.121547 -0.00122593 0.0
0.0843494 -0.000680126 0.0
0.0435909 -0.000211879 0.0
0.242039 -0.00442699 0.0
0.248273 -0.00430548 0.0
0.237486 -0.0036945 0.0
0.249535 -0.00445499 0.0
0.245973 -0.00405107 0.0
0.224091 -0.00327139 0.0
0.205565 -0.00290592 0.0
0.242148 -0.00484237 0.0
0.230988 -0.00450479 0.0
0.05228 -0.000319317 0.0
0.0970708 -0.00106521 0.0
0.135089 -0.00196577 0.0
0.167093 -0.00283116 0.0
0.214987 -0.0042827 0.0
0.193581 -0.003552 0.0
0 0 0.0
0 0 0.0
0.153754 -0.00189993 0.0
0.181742 -0.00253143 0.0
0.0838622 -0.000708647 0.0
0.120867 -0.0013004 0.0
0.0432024 -0.000225184 0.0
0.24826 -0.004995 0.0
0.249364 -0.00492269 0.0
0.20504 -0.00312452 0.0
0.2372 -0.00395544 0.0
0.245773 -0.00435905 0.0
0.223487 -0.00364464 0.0
0.242254 -0.00527811 0.0
0.231421 -0.00527831 0.0
0.215493 -0.00485024 0.0
0.0529494 -0.000374901 0.0
0.0980033 -0.00124419 0.0
0.13621 -0.00232546 0.0
0.167951 -0.00324208 0.0
0.194447 -0.00418594 0.0
0 0 0.0
0 0 0.0
0.152984 -0.00201822 0.0
0.181103 -0.00269299 0.0
0.0832455 -0.000739883 0.0
0.120238 -0.00135653 0.0
0.0427831 -0.000235318 0.0
0.245538 -0.00468686 0.0
0.249151 -0.00542556 0.0
0.248194 -0.00555821 0.0
0.204449 -0.00334792 0.0
0.236796 -0.00431159 0.0
0.222959 -0.00395102 0.0
0.180403 -0.0028478 0.0
0.242395 -0.0061627 0.0
0 0 0.0
0.231717 -0.00595905 0.0
0.195214 -0.00479349 0.0
0.216024 -0.00549188 0.0
0.053667 -0.000440598 0.0
0.137165 -0.00265179 0.0
0.0992076 -0.00148935 0.0
0.169105 -0.00385645 0.0
0 0 0.0
0 0 0.0
0 0 0.0
0 0 0.0
0 0 0.0
0.0423893 -0.000241595 0.0
0.119574 -0.00140662 0.0
0.15228 -0.00211286 0.0
0.0827145 -0.000763408 0.0
0.245179 -0.00512864 0.0
0.248872 -0.00598443 0.0
0.248099 -0.00617808 0.0
0.222468 -0.00419521 0.0
0.203778 -0.00357601 0.0
0.236103 -0.00484527 0.0
0.203148 -0.0037705 0.0
0.179824 -0.00295699 0.0
0.242446 -0.00690111 0.0
0.232019 -0.00670587 0.0
0 0 0.0
9.36248e-05 -4.05124e-05 0.0
0 0 0.0
-0.000291806 0.00150338 0.0
0.216589 -0.00623747 0.0
0.195839 -0.00530355 0.0
0.0545931 -0.000530129 0.0
0.138423 -0.00309097 0.0
0.10049 -0.0017607 0.0
0.170206 -0.00446817 0.0
0 0 0.0
0 0 0.0
0 0 0.0
-0.0002092 0.000745784 0.0
-2.6236e-06 -0.000143675 0.0
7.338e-05 -9.11798e-05 0.0
0 0 0.0
0.0419571 -0.000249454 0.0
0.118988 -0.00143957 0.0
0.151524 -0.00219732 0.0
0.0820554 -0.000786111 0.0
0.244752 -0.00561921 0.0
0.24852 -0.00659433 0.0
0.24794 -0.00685789 0.0
0.221917 -0.00445917 0.0
0.235636 -0.00518631 0.0
0.202448 -0.00396222 0.0
0.178777 -0.00313661 0.0
0.242466 -0.00771166 0.0
0.235293 -0.0075575 0.0
0.225299 -0.00722899 0.0
0 0 0.0
0.000160936 -1.48165e-05 0.0
0 0 0.0
0 0 0.0
-0.00105413 0.00356495 0.0
-0.000975988 0.00223328 0.0
0.212453 -0.00676305 0.0
0.196714 -0.00608236 0.0
0.101834 -0.00205714 0.0
0.0555975 -0.000640475 0.0
0.139855 -0.00362534 0.0
0.171412 -0.00518365 0.0
0 0 0.0
-0.000303387 0.000278695 0.0
-0.000631618 0.00105425 0.0
-0.000147211 4.88651e-05 0.0
-6.81702e-05 0.000103404 0.0
0 0 0.0
0.0415164 -0.000255934 0.0
0.118271 -0.00147386 0.0
0.150719 -0.00226752 0.0
0.0814354 -0.000802789 0.0
0.244234 -0.00614434 0.0
0.248086 -0.00725573 0.0
0.247711 -0.00760594 0.0
0.220881 -0.00491382 0.0
0.235104 -0.00552964 0.0
0.20153 -0.00420222 0.0
0.149857 -0.0023464 0.0
0.177836 -0.00328591 0.0
0.242435 -0.00841584 0.0
0.232463 -0.00817187 0.0
0.217571 -0.00776713 0.0
0 0 0.0
1.92684e-05 8.22949e-05 0.0
0 0 0.0
0 0 0.0
0 0 0.0
0 0 0.0
-0.00172397 0.00239867 0.0
-0.000309785 0.00316719 0.0
-0.00110425 0.00474246 0.0
-0.00253846 0.00628191 0.0
-0.0020796 0.00416458 0.0
0 0 0.0
-8.48e-05 0.00510574 0.0
0.197879 -0.00725153 0.0
0.172468 -0.00586967 0.0
0 0 0.0
0.0569296 -0.000797615 0.0
0.103562 -0.00247251 0.0
0.14175 -0.00442309 0.0
0 0 0.0
0 0 0.0
-0.000973617 0.00106402 0.0
-0.000674585 0.000578145 0.0