# vtk DataFile Version 3.0
Mesh NS-CD Problem
ASCII
DATASET UNSTRUCTURED_GRID
POINTS 10839 float
-2 0.3 0.0
-2 0.4 0.0
-2 0.35 0.0
-2 0.45 0.0
-2 0.5 0.0
-2 0.55 0.0
-2 0 0.0
-2 0.05 0.0
-2 0.85 0.0
-2 0.9 0.0
-2 0.1 0.0
-2 0.15 0.0
-2 0.25 0.0
-2 0.2 0.0
-1.96653 0.266667 0.0
-1.96524 0.415385 0.0
-1.96485 0.315 0.0
-1.96348 0.363636 0.0
-1.96414 0.464286 0.0
-2 0.6 0.0
-1.96538 0.584615 0.0
-1.96538 0.538462 0.0
-1.94979 0 0.0
-1.96653 0.0666666 0.0
-1.93306 0.0333333 0.0
-2 0.8 0.0
-2 0.75 0.0
-2 0.7 0.0
-2 0.65 0.0
-1.96249 0.7375 0.0
-1.96666 0.833333 0.0
-2 1 0.0
-2 0.95 0.0
-1.96249 0.8875 0.0
-1.96666 0.933333 0.0
-1.96234 0.1125 0.0
-1.96653 0.166667 0.0
-1.93724 0.225 0.0
-1.92971 0.28 0.0
-1.93048 0.380769 0.0
-1.93048 0.423077 0.0
-1.89958 0.3375 0.0
-1.9292 0.484203 0.0
-1.92117 0.530907 0.0
-1.96363 0.636364 0.0
-1.93076 0.576923 0.0
-1.89958 0 0.0
-1.88703 0.0375 0.0
-1.90963 0.08 0.0
-1.86611 0.0666666 0.0
-1.93749 0.775 0.0
-1.93635 0.672727 0.0
-1.92999 0.72 0.0
-1.93332 0.866667 0.0
-1.92856 0.821429 0.0
-1.94999 1 0.0
-1.92499 0.9625 0.0
-1.92499 0.925 0.0
-1.89998 0.9 0.0
-1.89958 0.125 0.0
-1.92827 0.178571 0.0
-1.89958 0.233333 0.0
-1.89045 0.290909 0.0
-1.86096 0.311538 0.0
-1.89241 0.392857 0.0
-1.89334 0.448489 0.0
-1.85655 0.357143 0.0
-1.89614 0.653846 0.0
-1.89427 0.504121 0.0
-1.8952 0.559753 0.0
-1.89614 0.615385 0.0
-1.84937 0 0.0
-1.83264 0.0333333 0.0
-1.85655 0.107143 0.0
-1.81172 0.075 0.0
-1.89998 0.766667 0.0
-1.89089 0.709091 0.0
-1.87498 0.85 0.0
-1.85998 0.79 0.0
-1.88748 0.8125 0.0
-1.89998 1 0.0
-1.88748 0.9625 0.0
-1.86664 0.933333 0.0
-1.85712 0.892857 0.0
-1.87448 0.15 0.0
-1.86611 0.194444 0.0
-1.83264 0.133333 0.0
-1.83264 0.2625 0.0
-1.82068 0.321429 0.0
-1.85664 0.404762 0.0
-1.85674 0.452381 0.0
-1.85683 0.5 0.0
-1.81184 0.375 0.0
-1.85712 0.642857 0.0
-1.85693 0.547619 0.0
-1.85702 0.595238 0.0
-1.79917 0 0.0
-1.78482 0.0357143 0.0
-1.79917 0.116667 0.0
-1.76569 0.0666666 0.0
-1.85452 0.745455 0.0
-1.82689 0.692308 0.0
-1.81815 0.781818 0.0
-1.82497 0.825 0.0
-1.84997 1 0.0
-1.8333 0.958333 0.0
-1.81247 0.8875 0.0
-1.81247 0.925 0.0
-1.81742 0.218182 0.0
-1.82427 0.175 0.0
-1.77634 0.145455 0.0
-1.79144 0.242308 0.0
-1.78482 0.285714 0.0
-1.77469 0.332653 0.0
-1.81215 0.529762 0.0
-1.81194 0.422619 0.0
-1.81203 0.470238 0.0
-1.76714 0.392857 0.0
-1.81234 0.625 0.0
-1.79732 0.571429 0.0
-1.74896 0 0.0
-1.73222 0.0333333 0.0
-1.75398 0.105 0.0
-1.71883 0.07 0.0
-1.79227 0.730769 0.0
-1.78007 0.679121 0.0
-1.75765 0.769231 0.0
-1.78178 0.818182 0.0
-1.78996 0.86 0.0
-1.79996 1 0.0
-1.78568 0.964286 0.0
-1.76663 0.922222 0.0
-1.76569 0.1875 0.0
-1.73222 0.15 0.0
-1.74896 0.25 0.0
-1.73714 0.304762 0.0
-1.76743 0.537202 0.0
-1.72869 0.343878 0.0
-1.76732 0.485119 0.0
-1.76723 0.440476 0.0
-1.72243 0.410714 0.0
-1.76757 0.607143 0.0
-1.69875 0 0.0
-1.68369 0.035 0.0
-1.69875 0.1125 0.0
-1.66528 0.075 0.0
-1.74341 0.708974 0.0
-1.73324 0.665934 0.0
-1.70441 0.74478 0.0
-1.71423 0.785714 0.0
-1.72303 0.826923 0.0
-1.74541 0.854545 0.0
-1.74541 0.890909 0.0
-1.74996 1 0.0
-1.73745 0.9625 0.0
-1.71359 0.927273 0.0
-1.68716 0.153846 0.0
-1.7131 0.214286 0.0
-1.70725 0.275 0.0
-1.69712 0.321939 0.0
-1.72279 0.589286 0.0
-1.72261 0.5 0.0
-1.7227 0.544643 0.0
-1.6827 0.355102 0.0
-1.67773 0.428571 0.0
-1.70763 0.464286 0.0
-1.70369 0.62449 0.0
-1.64854 0 0.0
-1.63181 0.0375 0.0
-1.64137 0.142857 0.0
-1.61764 0.0769231 0.0
-1.69458 0.703846 0.0
-1.67471 0.657437 0.0
-1.66143 0.727637 0.0
-1.67125 0.768571 0.0
-1.67851 0.821429 0.0
-1.68841 0.861538 0.0
-1.70904 0.890909 0.0
-1.69995 1 0.0
-1.68176 0.963636 0.0
-1.67267 0.927273 0.0
-1.65427 0.187143 0.0
-1.66718 0.231429 0.0
-1.66554 0.3 0.0
-1.67802 0.571429 0.0
-1.67792 0.523809 0.0
-1.6367 0.366327 0.0
-1.63682 0.423469 0.0
-1.62568 0.502976 0.0
-1.6629 0.470238 0.0
-1.65254 0.618367 0.0
-1.6059 0.307143 0.0
-1.59833 0 0.0
-1.58288 0.0384615 0.0
-1.60563 0.169643 0.0
-1.58179 0.112271 0.0
-1.56964 0.0714286 0.0
-1.64574 0.690385 0.0
-1.62827 0.751429 0.0
-1.63371 0.791071 0.0
-1.64279 0.857143 0.0
-1.65378 0.896154 0.0
-1.64994 1 0.0
-1.6363 0.963636 0.0
-1.61916 0.930769 0.0
-1.61345 0.209107 0.0
-1.62126 0.248571 0.0
-1.56989 0.196429 0.0
-1.63324 0.553571 0.0
-1.58846 0.535714 0.0
-1.59408 0.361905 0.0
-1.59161 0.402211 0.0
-1.58832 0.464286 0.0
-1.61504 0.598581 0.0
-1.59683 0.64359 0.0
-1.57899 0.274107 0.0
-1.56176 0.322381 0.0
-1.54812 0 0.0
-1.53378 0.0357143 0.0
-1.54593 0.147619 0.0
-1.53385 0.0732143 0.0
-1.53393 0.110714 0.0
-1.58522 0.704286 0.0
-1.58709 0.745 0.0
-1.58896 0.785714 0.0
-1.60695 0.830357 0.0
-1.60707 0.892857 0.0
-1.59993 1 0.0
-1.58454 0.965385 0.0
-1.57135 0.928571 0.0
-1.55209 0.241071 0.0
-1.5291 0.198214 0.0
-1.56936 0.570918 0.0
-1.54369 0.517857 0.0
-1.5464 0.380952 0.0
-1.54564 0.427721 0.0
-1.54488 0.47449 0.0
-1.55026 0.606122 0.0
-1.54222 0.677143 0.0
-1.52943 0.282857 0.0
-1.52143 0.33619 0.0
-1.49792 0 0.0
-1.49802 0.05 0.0
-1.49822 0.15 0.0
-1.49312 0.1 0.0
-1.5423 0.717143 0.0
-1.54419 0.767857 0.0
-1.54727 0.819048 0.0
-1.57122 0.861905 0.0
-1.53553 0.914286 0.0
-1.54992 1 0.0
-1.53563 0.964286 0.0
-1.49842 0.25 0.0
-1.48831 0.2 0.0
-1.5214 0.558929 0.0
-1.49891 0.5 0.0
-1.49871 0.4 0.0
-1.47631 0.45 0.0
-1.49911 0.6 0.0
-1.49921 0.65 0.0
-1.49931 0.7 0.0
-1.48111 0.35 0.0
-1.48351 0.3 0.0
-1.44771 0 0.0
-1.44782 0.05 0.0
-1.44804 0.15 0.0
-1.44793 0.1 0.0
-1.49941 0.75 0.0
-1.49951 0.8 0.0
-1.49981 0.95 0.0
-1.49961 0.85 0.0
-1.49971 0.9 0.0
-1.49991 1 0.0
-1.44826 0.25 0.0
-1.43815 0.2 0.0
-1.47151 0.55 0.0
-1.44881 0.5 0.0
-1.44859 0.4 0.0
-1.42619 0.45 0.0
-1.44913 0.65 0.0
-1.44902 0.6 0.0
-1.44935 0.75 0.0
-1.44924 0.7 0.0
-1.43972 0.35 0.0
-1.43336 0.3 0.0
-1.3975 0 0.0
-1.39762 0.05 0.0
-1.39786 0.15 0.0
-1.39274 0.1 0.0
-1.44957 0.85 0.0
-1.44946 0.8 0.0
-1.4523 0.95 0.0
-1.44968 0.9 0.0
-1.4499 1 0.0
-1.3981 0.25 0.0
-1.38798 0.2 0.0
-1.42141 0.55 0.0
-1.3987 0.5 0.0
-1.39834 0.35 0.0
-1.37845 0.4 0.0
-1.37607 0.45 0.0
-1.40784 0.65 0.0
-1.39894 0.6 0.0
-1.41185 0.75 0.0
-1.39918 0.7 0.0
-1.38322 0.3 0.0
-1.34729 0 0.0
-1.34492 0.05 0.0
-1.34018 0.15 0.0
-1.34255 0.1 0.0
-1.40707 0.85 0.0
-1.39941 0.8 0.0
-1.39977 0.95 0.0
-1.39965 0.9 0.0
-1.39989 1 0.0
-1.33781 0.2 0.0
-1.33544 0.25 0.0
-1.37131 0.55 0.0
-1.34859 0.5 0.0
-1.33833 0.4 0.0
-1.3307 0.35 0.0
-1.32595 0.45 0.0
-1.34885 0.6 0.0
-1.36655 0.65 0.0
-1.36179 0.75 0.0
-1.34911 0.7 0.0
-1.33307 0.3 0.0
-1.29708 0 0.0
-1.29722 0.05 0.0
-1.2975 0.15 0.0
-1.29236 0.1 0.0
-1.35703 0.85 0.0
-1.34937 0.8 0.0
-1.34988 1 0.0
-1.34962 0.9 0.0
-1.35226 0.95 0.0
-1.28528 0.25 0.0
-1.28764 0.2 0.0
-1.28931 0.35 0.0
-1.32121 0.55 0.0
-1.29848 0.5 0.0
-1.28709 0.45 0.0
-1.2982 0.4 0.0
-1.29876 0.6 0.0
-1.31647 0.65 0.0
-1.29918 0.75 0.0
-1.29904 0.7 0.0
-1.28292 0.3 0.0
-1.24687 0 0.0
-1.24702 0.05 0.0
-1.24717 0.1 0.0
-1.24732 0.15 0.0
-1.29946 0.85 0.0
-1.29932 0.8 0.0
-1.29987 1 0.0
-1.29974 0.95 0.0
-1.30462 0.9 0.0
-1.24762 0.25 0.0
-1.23747 0.2 0.0
-1.24792 0.35 0.0
-1.22807 0.4 0.0
-1.27111 0.55 0.0
-1.24837 0.5 0.0
-1.24822 0.45 0.0
-1.24867 0.6 0.0
-1.26639 0.65 0.0
-1.26167 0.75 0.0
-1.24897 0.7 0.0
-1.23277 0.3 0.0
-1.19667 0 0.0
-1.19683 0.05 0.0
-1.18964 0.15 0.0
-1.19198 0.1 0.0
-1.25695 0.85 0.0
-1.24927 0.8 0.0
-1.25223 0.95 0.0
-1.24987 1 0.0
-1.24957 0.9 0.0
-1.1873 0.2 0.0
-1.18496 0.25 0.0
-1.18028 0.35 0.0
-1.17794 0.4 0.0
-1.1981 0.45 0.0
-1.19842 0.55 0.0
-1.19826 0.5 0.0
-1.19858 0.6 0.0
-1.19874 0.65 0.0
-1.19906 0.75 0.0
-1.1989 0.7 0.0
-1.18262 0.3 0.0
-1.14646 0 0.0
-1.14663 0.05 0.0
-1.1418 0.1 0.0
-1.13713 0.2 0.0
-1.14697 0.15 0.0
-1.20691 0.85 0.0
-1.20926 0.8 0.0
-1.20221 0.95 0.0
-1.19986 1 0.0
-1.20456 0.9 0.0
-1.13997 0.3 0.0
-1.14731 0.25 0.0
-1.13781 0.4 0.0
-1.13014 0.35 0.0
-1.12548 0.45 0.0
-1.14815 0.5 0.0
-1.15962 0.55 0.0
-1.14849 0.6 0.0
-1.15745 0.65 0.0
-1.16155 0.75 0.0
-1.14917 0.8 0.0
-1.14883 0.7 0.0
-1.09625 0 0.0
-1.09661 0.1 0.0
-1.09393 0.05 0.0
-1.09697 0.2 0.0
-1.08929 0.15 0.0
-1.15687 0.85 0.0
-1.14985 1 0.0
-1.15219 0.95 0.0
-1.14951 0.9 0.0
-1.09733 0.3 0.0
-1.08465 0.25 0.0
-1.09769 0.4 0.0
-1.08 0.35 0.0
-1.08661 0.45 0.0
-1.09804 0.5 0.0
-1.12082 0.55 0.0
-1.10916 0.8 0.0
-1.10629 0.7 0.0
-1.0984 0.6 0.0
-1.11616 0.65 0.0
-1.11149 0.75 0.0
-1.04604 0 0.0
-1.04623 0.05 0.0
-1.04642 0.1 0.0
-1.0468 0.2 0.0
-1.03911 0.15 0.0
-1.09948 0.9 0.0
-1.0993 0.85 0.0
-1.09984 1 0.0
-1.09966 0.95 0.0
-1.04718 0.3 0.0
-1.03449 0.25 0.0
-1.04756 0.4 0.0
-1.02986 0.35 0.0
-1.04775 0.45 0.0
-1.04794 0.5 0.0
-1.04813 0.55 0.0
-1.05911 0.8 0.0
-1.04831 0.6 0.0
-1.06376 0.7 0.0
-1.0485 0.65 0.0
-1.04888 0.75 0.0
-0.995833 0 0.0
-0.991231 0.1 0.0
-0.996033 0.05 0.0
-0.986629 0.2 0.0
-0.98893 0.15 0.0
-1.05447 0.9 0.0
-1.04926 0.85 0.0
-1.04983 1 0.0
-1.04964 0.95 0.0
-0.984328 0.25 0.0
-0.99703 0.3 0.0
-0.997429 0.4 0.0
-0.997628 0.45 0.0
-0.979726 0.35 0.0
-0.997827 0.5 0.0
-0.998027 0.55 0.0
-0.998226 0.6 0.0
-0.961416 0.475 0.0
-1.00907 0.8 0.0
-0.998426 0.65 0.0
-0.998625 0.7 0.0
-1.01138 0.75 0.0
-0.945625 0 0.0
-0.946044 0.1 0.0
-0.943334 0.05 0.0
-0.946463 0.2 0.0
-0.938752 0.15 0.0
-1.00444 0.9 0.0
-1.00675 0.85 0.0
-0.999821 1 0.0
-1.00213 0.95 0.0
-0.93417 0.25 0.0
-0.946881 0.3 0.0
-0.9473 0.4 0.0
-0.929588 0.35 0.0
-0.925005 0.45 0.0
-0.960371 0.525 0.0
-0.959325 0.575 0.0
-0.958279 0.625 0.0
-0.922714 0.5 0.0
-0.959017 0.8 0.0
-0.957233 0.675 0.0
-0.952999 0.7125 0.0
-0.948766 0.75 0.0
-0.895417 0 0.0
-0.895855 0.1 0.0
-0.893136 0.05 0.0
-0.896294 0.2 0.0
-0.888573 0.15 0.0
-0.949184 0.85 0.0
-0.954415 0.9 0.0
-0.949812 1 0.0
-0.949603 0.95 0.0
-0.884011 0.25 0.0
-0.896733 0.3 0.0
-0.874887 0.45 0.0
-0.879449 0.35 0.0
-0.897171 0.4 0.0
-0.920423 0.55 0.0
-0.918132 0.6 0.0
-0.915841 0.65 0.0
-0.872606 0.5 0.0
-0.908968 0.8 0.0
-0.91355 0.7 0.0
-0.898707 0.75 0.0
-0.845208 0 0.0
-0.845438 0.05 0.0
-0.845667 0.1 0.0
-0.845896 0.15 0.0
-0.833853 0.25 0.0
-0.846126 0.2 0.0
-0.899146 0.85 0.0
-0.904386 0.9 0.0
-0.899584 0.95 0.0
-0.899804 1 0.0
-0.838062 0.35 0.0
[...]
POINT_DATA 10839
VECTORS Velocity float
0.21 0 0.0
0.24 0 0.0
0.2275 0 0.0
0.2475 0 0.0
0.25 0 0.0
0.2475 0 0.0
0 0 0.0
0.0475 0 0.0
0.1275 0 0.0
0.09 0 0.0
0.09 0 0.0
0.1275 0 0.0
0.1875 0 0.0
0.16 0 0.0
0.195557 -2.43791e-05 0.0
0.242841 -3.3203e-05 0.0
0.215776 -2.89954e-05 0.0
0.231406 -3.26701e-05 0.0
0.248725 -3.53444e-05 0.0
0.24 0 0.0
0.24284 -3.31287e-05 0.0
0.24852 -3.40393e-05 0.0
0 0 0.0
0.062224 -4.2829e-06 0.0
0.0322271 -2.83217e-06 0.0
0.16 0 0.0
0.1875 0 0.0
0.21 0 0.0
0.2275 0 0.0
0.193592 -2.7364e-05 0.0
0.138887 -1.52339e-05 0.0
0 0 0.0
0.0475 0 0.0
0.0998414 -1.06047e-05 0.0
0.0622205 -4.3313e-06 0.0
0.0998462 -1.10784e-05 0.0
0.138891 -1.53671e-05 0.0
0.17438 -3.84246e-05 0.0
0.201606 -5.25745e-05 0.0
0.235787 -6.41259e-05 0.0
0.244085 -6.70837e-05 0.0
0.223602 -8.59302e-05 0.0
0.249751 -7.00765e-05 0.0
0.249044 -7.80723e-05 0.0
0.231404 -3.31981e-05 0.0
0.244081 -6.6292e-05 0.0
0 0 0.0
0.0361084 -5.46638e-06 0.0
0.0736129 -1.52553e-05 0.0
0.0622496 -1.67069e-05 0.0
0.17437 -3.78646e-05 0.0
0.220162 -5.25371e-05 0.0
0.201594 -5.26535e-05 0.0
0.115548 -2.27615e-05 0.0
0.146676 -3.52083e-05 0.0
0 0 0.0
0.0360873 -3.68859e-06 0.0
0.0693659 -1.19408e-05 0.0
0.0899832 -2.36477e-05 0.0
0.109391 -3.19505e-05 0.0
0.146692 -3.45229e-05 0.0
0.178902 -6.43605e-05 0.0
0.206293 -8.40715e-05 0.0
0.214501 -0.000113196 0.0
0.238527 -0.00010043 0.0
0.24735 -0.00010456 0.0
0.229607 -0.000127759 0.0
0.226323 -9.02788e-05 0.0
0.249983 -0.000105073 0.0
0.246426 -0.000102234 0.0
0.23668 -9.62794e-05 0.0
0 0 0.0
0.0322511 -6.17443e-06 0.0
0.095697 -3.62645e-05 0.0
0.0694301 -2.73328e-05 0.0
0.178876 -6.33867e-05 0.0
0.206269 -8.47084e-05 0.0
0.127476 -4.89247e-05 0.0
0.165873 -8.01711e-05 0.0
0.152325 -5.7478e-05 0.0
0 0 0.0
0.0360793 -5.29531e-06 0.0
0.0621953 -1.65341e-05 0.0
0.0956295 -3.69614e-05 0.0
0.127525 -4.93898e-05 0.0
0.156661 -7.16659e-05 0.0
0.115601 -5.66708e-05 0.0
0.193626 -0.000117989 0.0
0.218141 -0.000149198 0.0
0.24094 -0.000136096 0.0
0.247737 -0.000141125 0.0
0.25 -0.000142659 0.0
0.234398 -0.000172639 0.0
0.229576 -0.000125998 0.0
0.247727 -0.000140814 0.0
0.240919 -0.000135857 0.0
0 0 0.0
0.034488 -8.54299e-06 0.0
0.103122 -5.5662e-05 0.0
0.0623041 -2.7681e-05 0.0
0.189727 -0.000100339 0.0
0.212988 -0.000139994 0.0
0.170534 -0.000108625 0.0
0.144329 -8.06858e-05 0.0
0 0 0.0
0.0398975 -9.10348e-06 0.0
0.0997856 -5.06387e-05 0.0
0.0693204 -2.68955e-05 0.0
0.170625 -0.000108737 0.0
0.144422 -8.24254e-05 0.0
0.124378 -8.35422e-05 0.0
0.18365 -0.000137346 0.0
0.204132 -0.000164353 0.0
0.222038 -0.000193418 0.0
0.249109 -0.000187142 0.0
0.244027 -0.000182171 0.0
0.24912 -0.000187152 0.0
0.238551 -0.0002196 0.0
0.234353 -0.000171625 0.0
0.244883 -0.000197236 0.0
0 0 0.0
0.0322929 -9.04452e-06 0.0
0.0940752 -5.84894e-05 0.0
0.0652187 -3.49923e-05 0.0
0.196696 -0.000150157 0.0
0.217871 -0.000184367 0.0
0.177437 -0.000152362 0.0
0.148689 -0.000106443 0.0
0.120328 -7.45955e-05 0.0
0 0 0.0
0.03439 -8.6327e-06 0.0
0.0716432 -3.51365e-05 0.0
0.152425 -0.000119315 0.0
0.127615 -0.000103652 0.0
0.187579 -0.00017018 0.0
0.211951 -0.000211854 0.0
0.248605 -0.000232131 0.0
0.225686 -0.000239944 0.0
0.249783 -0.000233812 0.0
0.246474 -0.000229886 0.0
0.242064 -0.000268836 0.0
0.23849 -0.000218982 0.0
0 0 0.0
0.0338756 -1.13304e-05 0.0
0.0999943 -7.80405e-05 0.0
0.0695467 -4.65648e-05 0.0
0.20626 -0.000198382 0.0
0.222404 -0.000231153 0.0
0.189975 -0.000206054 0.0
0.168253 -0.000166523 0.0
0.143003 -0.000127839 0.0
0.124193 -9.44314e-05 0.0
0.0970829 -6.34976e-05 0.0
0 0 0.0
0.0360198 -1.0988e-05 0.0
0.0673135 -3.76444e-05 0.0
0.130336 -0.000125167 0.0
0.168483 -0.000167304 0.0
0.199473 -0.000218137 0.0
0.218379 -0.000255894 0.0
0.241992 -0.00026948 0.0
0.25 -0.000281276 0.0
0.247989 -0.000278001 0.0
0.229082 -0.000288637 0.0
0.244938 -0.000319893 0.0
0.248741 -0.000295094 0.0
0.234445 -0.000276038 0.0
0 0 0.0
0.0362342 -1.46015e-05 0.0
0.12266 -0.000128169 0.0
0.0712312 -5.50546e-05 0.0
0.208349 -0.00024242 0.0
0.225126 -0.000288342 0.0
0.198047 -0.000251583 0.0
0.177724 -0.000208451 0.0
0.146524 -0.000153855 0.0
0.119131 -0.000107611 0.0
0.0970499 -7.19999e-05 0.0
0 0 0.0
0.0349373 -1.23019e-05 0.0
0.067276 -4.23729e-05 0.0
0.152302 -0.000174781 0.0
0.178018 -0.000213366 0.0
0.210117 -0.00026979 0.0
0.244858 -0.000319779 0.0
0.24942 -0.000328504 0.0
0.232226 -0.000339278 0.0
0.244197 -0.000363728 0.0
0.249988 -0.000388096 0.0
0.249132 -0.000345102 0.0
0.235912 -0.000330299 0.0
0.212964 -0.000329141 0.0
0 0 0.0
0.0371634 -1.71966e-05 0.0
0.141112 -0.00017825 0.0
0.0999596 -0.000107925 0.0
0.0666021 -5.3655e-05 0.0
0.213628 -0.000294686 0.0
0.186606 -0.000256585 0.0
0.165083 -0.00020892 0.0
0.122239 -0.000128956 0.0
0.0928642 -7.89434e-05 0.0
0 0 0.0
0.0349073 -1.3735e-05 0.0
0.0642244 -4.49994e-05 0.0
0.165598 -0.000223256 0.0
0.186969 -0.00026232 0.0
0.158125 -0.000233483 0.0
0.247091 -0.000373442 0.0
0.248691 -0.000428914 0.0
0.231052 -0.00038076 0.0
0.240526 -0.000406285 0.0
0.248757 -0.000428587 0.0
0.240202 -0.000379752 0.0
0.229256 -0.000373007 0.0
0.199183 -0.000322156 0.0
0.218635 -0.000384833 0.0
0 0 0.0
0.0346514 -1.68747e-05 0.0
0.126172 -0.000173195 0.0
0.0681809 -6.0611e-05 0.0
0.098822 -0.000117494 0.0
0.208082 -0.000336713 0.0
0.189758 -0.000293702 0.0
0.168124 -0.00024392 0.0
0.140618 -0.000176945 0.0
0.0954068 -9.38569e-05 0.0
0 0 0.0
0.033251 -1.40573e-05 0.0
0.0660533 -5.35665e-05 0.0
0.183225 -0.00030434 0.0
0.159264 -0.000261167 0.0
0.244898 -0.000442063 0.0
0.24966 -0.000485055 0.0
0.235962 -0.000445197 0.0
0.244858 -0.000470488 0.0
0.249378 -0.000483977 0.0
0.23862 -0.000447464 0.0
0.218419 -0.000404465 0.0
0.203105 -0.00037556 0.0
0.223371 -0.000439728 0.0
0 0 0.0
0.047809 -3.36424e-05 0.0
0.127923 -0.000197365 0.0
0.0904267 -0.000110367 0.0
0.202607 -0.000361696 0.0
0.177965 -0.000297684 0.0
0.147885 -0.000223697 0.0
0.118717 -0.000146952 0.0
0.0780241 -7.88684e-05 0.0
0 0 0.0
0.0342287 -1.65614e-05 0.0
0.187833 -0.000360065 0.0
0.160403 -0.000290471 0.0
0.246451 -0.00050472 0.0
0.249999 -0.000543671 0.0
0.24014 -0.000513585 0.0
0.247577 -0.000565888 0.0
0.239859 -0.000512896 0.0
0.227291 -0.000474914 0.0
0.209728 -0.000422658 0.0
0.227725 -0.000498759 0.0
0.210291 -0.000440643 0.0
0 0 0.0
0.0478729 -3.75437e-05 0.0
0.128018 -0.000220242 0.0
0.0905091 -0.000121342 0.0
0.187169 -0.000357997 0.0
0.159616 -0.00028093 0.0
0.0471948 -3.30348e-05 0.0
0.127081 -0.000194721 0.0
0.0895861 -0.000108173 0.0
0 0 0.0
0.187909 -0.000404428 0.0
0.160493 -0.000324987 0.0
0.24742 -0.000572098 0.0
0.249999 -0.000612114 0.0
0.240172 -0.000578701 0.0
0.247594 -0.000635849 0.0
0.227244 -0.000534244 0.0
0.239826 -0.000577065 0.0
0.187093 -0.00040185 0.0
0.209665 -0.000475134 0.0
0.227765 -0.000547284 0.0
0.210356 -0.000495129 0.0
0 0 0.0
0.0479432 -4.11423e-05 0.0
0.128124 -0.000244828 0.0
0.0906207 -0.000136058 0.0
0.126986 -0.00021815 0.0
0.15953 -0.000315032 0.0
0.047135 -3.66416e-05 0.0
0.089496 -0.000120217 0.0
0 0 0.0
0.187996 -0.000451549 0.0
0.160595 -0.000362225 0.0
0.247402 -0.000641644 0.0
0.249998 -0.000685394 0.0
0.227809 -0.000600209 0.0
0.240223 -0.000676506 0.0
0.247612 -0.000711456 0.0
0.227199 -0.000584474 0.0
0.23979 -0.000645964 0.0
0.187029 -0.000435573 0.0
0.209594 -0.000531184 0.0
0.210429 -0.000553442 0.0
0 0 0.0
0.0480258 -4.57252e-05 0.0
0.128262 -0.000275326 0.0
0.0907345 -0.000150225 0.0
0.126898 -0.000238248 0.0
0.159431 -0.000350678 0.0
0.0470623 -4.07253e-05 0.0
0.0893963 -0.00013275 0.0
0 0 0.0
0.160708 -0.000401833 0.0
0.188118 -0.000514833 0.0
0.247382 -0.000716241 0.0
0.249998 -0.000764164 0.0
0.240258 -0.00073886 0.0
0.227893 -0.000694311 0.0
0.247633 -0.000791769 0.0
0.239748 -0.000719364 0.0
0.227151 -0.000639374 0.0
0.186936 -0.000484261 0.0
0.209515 -0.00059074 0.0
0.210512 -0.000616772 0.0
0 0 0.0
0.0481089 -5.04338e-05 0.0
0.128376 -0.000300176 0.0
0.09086 -0.000165615 0.0
0.126782 -0.000263734 0.0
0.159321 -0.000389302 0.0
0 0 0.0
0.089285 -0.000146979 0.0
0.0469889 -4.48033e-05 0.0
0.188229 -0.000573058 0.0
0.160835 -0.0004455 0.0
0.227951 -0.000757514 0.0
0.247359 -0.000797236 0.0
0.249996 -0.000849701 0.0
0.247651 -0.000859771 0.0
0.240294 -0.000804257 0.0
0.239702 -0.00079896 0.0
0.227085 -0.000710482 0.0
0.186804 -0.00054999 0.0
0.209427 -0.00065595 0.0
0.210604 -0.00068472 0.0
0 0 0.0
0.0482031 -5.54565e-05 0.0
0.0909845 -0.000180205 0.0
0.128522 -0.000331008 0.0
0.126634 -0.000295746 0.0
0.159199 -0.000430996 0.0
0 0 0.0
0.0469009 -4.94092e-05 0.0
0.0891758 -0.000160231 0.0
0.188322 -0.000618578 0.0
0.160977 -0.000493179 0.0
0.228012 -0.000825711 0.0
0.240365 -0.000930359 0.0
0.247333 -0.000885188 0.0
0.249995 -0.000942066 0.0
0.247671 -0.00093156 0.0
0.239649 -0.000885104 0.0
0.227012 -0.000787619 0.0
0.186716 -0.000593593 0.0
0.209328 -0.000725357 0.0
0.210707 -0.000759799 0.0
0 0 0.0
0.0483077 -6.0652e-05 0.0
0.128711 -0.000371158 0.0
0.0911525 -0.000200689 0.0
0.126512 -0.000322008 0.0
0.159063 -0.000476316 0.0
0.0468127 -5.38991e-05 0.0
0 0 0.0
0.0890286 -0.00017848 0.0
0.161134 -0.000545377 0.0
0.188492 -0.000701643 0.0
0.228129 -0.000948597 0.0
0.240424 -0.0010331 0.0
0.247696 -0.00103319 0.0
0.24729 -0.00102364 0.0
0.249992 -0.00104472 0.0
0.239591 -0.000980828 0.0
0.2269 -0.00089997 0.0
0.186554 -0.000671155 0.0
0.209218 -0.000802078 0.0
0.21082 -0.000841844 0.0
0 0 0.0
0.0484211 -6.60128e-05 0.0
0.091321 -0.000219152 0.0
0.161309 -0.000601006 0.0
0.128867 -0.000402185 0.0
0.126355 -0.000355562 0.0
0.158944 -0.000515557 0.0
0.0467095 -6.00056e-05 0.0
0 0 0.0
0.0888936 -0.000195608 0.0
0.210927 -0.000918703 0.0
0.188608 -0.00075892 0.0
0.240474 -0.0011206 0.0
0.228225 -0.0010545 0.0
0.24774 -0.00119494 0.0
0.249989 -0.0011553 0.0
0.247262 -0.00110628 0.0
0.239525 -0.00108271 0.0
0.226822 -0.000975884 0.0
0.186445 -0.000722336 0.0
0.158749 -0.00058048 0.0
0.209098 -0.000883732 0.0
0 0 0.0
0.0914899 -0.000238539 0.0
0.048554 -7.26989e-05 0.0
0.161465 -0.000652734 0.0
0.1291 -0.00045119 0.0
0.126183 -0.000393178 0.0
0 0 0.0
0.0465954 -6.6656e-05 0.0
0.0887133 -0.000218894 0.0
0.211046 -0.00100142 0.0
0.188819 -0.000864662 0.0
0.240528 -0.00121541 0.0
0.228331 -0.00117058 0.0
0.247762 -0.0012956 0.0
0.249982 -0.00127785 0.0
0.247233 -0.0011972 0.0
0.158605 -0.000625248 0.0
0.208985 -0.000958403 0.0
0.239451 -0.00119253 0.0
0.226738 -0.00105812 0.0
0.18629 -0.000796102 0.0
0 0 0.0
0.0486839 -7.85706e-05 0.0
0.0916923 -0.000261092 0.0
0.16168 -0.000721902 0.0
0.129329 -0.000498237 0.0
0.0885302 -0.000242162 0.0
0.125963 -0.000440969 0.0
0 0 0.0
0.0464629 -7.47513e-05 0.0
0.211197 -0.00111151 0.0
0.189014 -0.00096088 0.0
0.240601 -0.00134703 0.0
0.228448 -0.00130059 0.0
0.247788 -0.00140388 0.0
0.249976 -0.00141349 0.0
0.247167 -0.00137751 0.0
0.158412 -0.000687829 0.0
0.239369 -0.00131421 0.0
0.208863 -0.00103582 0.0
0.226585 -0.00120453 0.0
0.186073 -0.000898669 0.0
0 0 0.0
0.0919419 -0.000290037 0.0
0.0488321 -8.57284e-05 0.0
0.161969 -0.000817738 0.0
0.129584 -0.000551729 0.0
0.0883504 -0.000266 0.0
0.125752 -0.000488212 0.0
0 0 0.0
0.0463205 -8.36864e-05 0.0
0.189228 -0.00107124 0.0
0.211366 -0.00123705 0.0
0.24068 -0.00149667 0.0
0.247822 -0.00155208 0.0
0.228577 -0.0014461 0.0
0.249964 -0.00155927 0.0
0.247114 -0.00152183 0.0
0.239276 -0.00144359 0.0
0.249522 -0.00168136 0.0
0.158199 -0.000755118 0.0
0.226454 -0.00132326 0.0
0.208654 -0.00116769 0.0
0.18593 -0.000962843 0.0
0 0 0.0
0.0921723 -0.00031811 0.0
0.049007 -9.49031e-05 0.0
0.162189 -0.000893604 0.0
0.129869 -0.000613939 0.0
0.0881319 -0.000294677 0.0
0.125557 -0.000530686 0.0
0 0 0.0
0.0461716 -9.31067e-05 0.0
0.189469 -0.00119675 0.0
0.211554 -0.00138022 0.0
0.240759 -0.00166017 0.0
0.228717 -0.00161371 0.0
0.247866 -0.00180299 0.0
0.249131 -0.00166541 0.0
0.243751 -0.00160213 0.0
0.233387 -0.00149423 0.0
0.249935 -0.00181254 0.0
0.15797 -0.000826064 0.0
0.218043 -0.00134787 0.0
0.203256 -0.00121897 0.0
0.185673 -0.00107426 0.0
0 0 0.0
0.0924527 -0.000354958 0.0
0.0491885 -0.000104245 0.0
0.162489 -0.00100252 0.0
0.130191 -0.000688911 0.0
0.125272 -0.000590845 0.0
0.0878914 -0.000325683 0.0
0 0 0.0
0.0459898 -0.000103388 0.0
0.189738 -0.00134357 0.0
0.21176 -0.00154462 0.0
0.24789 -0.0019972 0.0
0.228868 -0.00180241 0.0
0.240851 -0.00184863 0.0
0.24701 -0.00176922 0.0
0.239097 -0.00167543 0.0
0.226204 -0.00153651 0.0
0.249901 -0.00200189 0.0
0.15772 -0.000900471 0.0
0.208338 -0.00135602 0.0
0.185442 -0.00116904 0.0
0 0 0.0
0.0493835 -0.000115811 0.0
0.0927696 -0.000401451 0.0
0.130497 -0.000764546 0.0
0.190036 -0.00151302 0.0
0.16283 -0.00113182 0.0
0.125 -0.000644184 0.0
0.0876287 -0.000357734 0.0
0.0457955 -0.000114604 0.0
0 0 0.0
0.229002 -0.00198002 0.0
0.211988 -0.00173704 0.0
0.24791 -0.00216753 0.0
0.240939 -0.00206362 0.0
0.226027 -0.00167431 0.0
0.246922 -0.00194507 0.0
0.23896 -0.00183435 0.0
0.249859 -0.00221102 0.0
0.185195 -0.00126256 0.0
0.157395 -0.00098579 0.0
0.208055 -0.00150808 0.0
0 0 0.0
0.0496148 -0.000133223 0.0
0.0931719 -0.00046455 0.0
0.130901 -0.000871745 0.0
0.190281 -0.00166562 0.0
0.163291 -0.0013271 0.0
0.12471 -0.000695034 0.0
0.0873178 -0.000391212 0.0
0.0455856 -0.000124952 0.0
0 0 0.0
0.124397 -0.00074263 0.0
0.229141 -0.00217085 0.0
0.212314 -0.00203784 0.0
0.241065 -0.00241393 0.0
0.247922 -0.00234955 0.0
0.225751 -0.00187057 0.0
0.238806 -0.00200249 0.0
0.246818 -0.0021387 0.0
0.249793 -0.00244301 0.0
0.184923 -0.00135502 0.0
0.157097 -0.00105745 0.0
0.207809 -0.0016302 0.0
0 0 0.0
0.0498809 -0.000153219 0.0
0.0935958 -0.000538577 0.0
0.13136 -0.00100569 0.0
0.190641 -0.00189283 0.0
0.163733 -0.00152517 0.0
0.0453538 -0.000136705 0.0
0.087009 -0.00042095 0.0
0 0 0.0
0.124117 -0.000774199 0.0
0.229319 -0.00244783 0.0
0.212593 -0.00231164 0.0
0.24115 -0.00270233 0.0
0.247923 -0.00261653 0.0
0.22555 -0.00199875 0.0
0.238625 -0.00218231 0.0
0.24971 -0.00270043 0.0
0.246626 -0.00244879 0.0
0.184698 -0.0014189 0.0
0.156777 -0.00111875 0.0
0.207534 -0.00174764 0.0
0 0 0.0
0.0501891 -0.000179392 0.0
0.0940874 -0.000629018 0.0
0.131968 -0.00119464 0.0
0.191137 -0.00223889 0.0
0.21289 -0.00263321 0.0
0.164224 -0.00176472 0.0
0.0451237 -0.000144705 0.0
0.086687 -0.000444736 0.0
0 0 0.0
0.123772 -0.000803745 0.0
0.229566 -0.00287699 0.0
0.241213 -0.00296703 0.0
0.247909 -0.00291499 0.0
0.249623 -0.00291482 0.0
0.225332 -0.0021241 0.0
0.238402 -0.00237917 0.0
0.24645 -0.00268515 0.0
0.156432 -0.00116904 0.0
0.184375 -0.00150059 0.0
0.207221 -0.00186357 0.0
0 0 0.0
0.0505777 -0.000213603 0.0
0.0946666 -0.000745206 0.0
0.132586 -0.0014027 0.0
0.19147 -0.00249032 0.0
0.213204 -0.00299793 0.0
0.16478 -0.00204949 0.0
0.0448686 -0.000151745 0.0
0.0863527 -0.00046135 0.0
0 0 0.0
0.156139 -0.00119255 0.0
0.0860168 -0.000466494 0.0
0.123357 -0.000820426 0.0
0.229753 -0.00327327 0.0
0.241263 -0.00324713 0.0
0.247841 -0.00341232 0.0
0.249523 -0.00313975 0.0
0.24629 -0.00288666 0.0
0.225025 -0.00228079 0.0
0.238033 -0.00267057 0.0
0.18392 -0.00158487 0.0
0.206923 -0.00196377 0.0
0.22991 -0.0036232 0.0
0 0 0.0
0.0510154 -0.000254279 0.0
0.1333 -0.00165381 0.0
0.0953447 -0.000887119 0.0
0.213542 -0.00343355 0.0
0.192069 -0.00297445 0.0
0.165401 -0.00238707 0.0
0.044597 -0.000153776 0.0
0 0 0.0
0.18361 -0.00162961 0.0
0.155744 -0.00121403 0.0
0.122984 -0.000822564 0.0
0.0443255 -0.000159005 0.0
0.0856774 -0.000464801 0.0
0.241317 -0.00365258 0.0
0.247774 -0.00371867 0.0
0.249342 -0.00347329 0.0
0.249178 -0.00375249 0.0
0.246095 -0.00309687 0.0
0.224661 -0.00244612 0.0
0.237689 -0.00289663 0.0
0.206584 -0.00204903 0.0
0.230047 -0.00401704 0.0
0.0515127 -0.000301988 0.0
0 0 0.0
0.133988 -0.00189964 0.0
0.0961395 -0.00105203 0.0
0.21389 -0.00392931 0.0
0.192462 -0.00331771 0.0
0.166103 -0.00278568 0.0
0 0 0.0
0.183167 -0.00166868 0.0
0.155234 -0.00121373 0.0
0.122666 -0.000802743 0.0
0.0440793 -0.000157331 0.0
0.0853458 -0.000454157 0.0
0.241341 -0.0043158 0.0
0.247688 -0.00404348 0.0
0.248974 -0.00404486 0.0
0.245652 -0.00352482 0.0
0.224244 -0.00260868 0.0
0.237299 -0.00313341 0.0
0.205994 -0.00218134 0.0
0.230225 -0.00456414 0.0
0 0 0.0
0.0521311 -0.000362615 0.0
0.134911 -0.00223711 0.0
0.096984 -0.00122978 0.0
0.166887 -0.0032426 0.0
0.214255 -0.00450308 0.0
0.19318 -0.00396697 0.0
0 0 0.0
0 0 0.0
0.182659 -0.00169978 0.0
0.154775 -0.0011987 0.0
0.122288 -0.000773823 0.0
0.0850326 -0.000435634 0.0
0.0438282 -0.000152732 0.0
0.241317 -0.00486065 0.0
0.24752 -0.00451991 0.0
0.236923 -0.00333764 0.0
0.248651 -0.00447543 0.0
0.245245 -0.00386565 0.0
0.223745 -0.00278102 0.0
0.205449 -0.00227448 0.0
0.241265 -0.00535344 0.0
0.230364 -0.00518407 0.0
0.0528674 -0.000431765 0.0
0.0980687 -0.0014513 0.0
0.135977 -0.00263168 0.0
0.167591 -0.00366959 0.0
0.214636 -0.00514901 0.0
0.193641 -0.00443159 0.0
0 0 0.0
0 0 0.0
0.154387 -0.00116944 0.0
0.181955 -0.00171467 0.0
0.0847689 -0.000408791 0.0
0.121854 -0.000725641 0.0
0.0435794 -0.000148005 0.0
0.247186 -0.005286 0.0
0.248236 -0.0049584 0.0
0.204837 -0.00236273 0.0
0.236494 -0.00354568 0.0
0.244884 -0.00415225 0.0
0.222948 -0.00301778 0.0
0.241185 -0.00586796 0.0
0.230544 -0.00614556 0.0
0.215019 -0.00588654 0.0
0.0537919 -0.000518076 0.0
0.0993359 -0.00171811 0.0
0.137401 -0.00315389 0.0
0.168567 -0.00425427 0.0
0.194489 -0.00529296 0.0
0 0 0.0
0 0 0.0
0.153774 -0.00112038 0.0
0.181308 -0.00172725 0.0
0.0844821 -0.000372816 0.0
0.121487 -0.000677028 0.0
0.0433502 -0.000139434 0.0
0.24446 -0.00445981 0.0
0.247737 -0.00547887 0.0
0.246841 -0.00591456 0.0
0.204133 -0.00245167 0.0
0.235874 -0.00383281 0.0
0.222233 -0.00321861 0.0
0.180603 -0.00173652 0.0
0.24094 -0.00690919 0.0
0 0 0.0
0.230607 -0.00697895 0.0
0.195231 -0.00609663 0.0
0.215404 -0.00670681 0.0
0.0547891 -0.000611433 0.0
0.138627 -0.00360877 0.0
0.100981 -0.00206506 0.0
0.169886 -0.0050901 0.0
0 0 0.0
0 0 0.0
0 0 0.0
0 0 0.0
0 0 0.0
0.0431604 -0.000130176 0.0
0.121134 -0.000627914 0.0
0.153226 -0.00108148 0.0
0.084253 -0.000347429 0.0
0.24382 -0.00487536 0.0
0.247124 -0.00606195 0.0
0.246429 -0.00660332 0.0
0.221564 -0.00337417 0.0
0.203327 -0.0025459 0.0
0.234815 -0.00427137 0.0
0.202568 -0.00263051 0.0
0.180017 -0.0017437 0.0
0.240659 -0.00776878 0.0
0.230645 -0.00788403 0.0
0 0 0.0
9.53357e-05 -3.77826e-05 0.0
0 0 0.0
-0.000372778 0.00221697 0.0
0.215802 -0.00764158 0.0
0.195837 -0.00675577 0.0
0.0560827 -0.000736222 0.0
0.140239 -0.00420189 0.0
0.102731 -0.0024339 0.0
0.171151 -0.00589402 0.0
0 0 0.0
0 0 0.0
0 0 0.0
-0.000280026 0.00122035 0.0
-3.01814e-05 -9.82089e-05 0.0
1.9569e-05 -3.9364e-05 0.0
0 0 0.0
0.0429633 -0.000124422 0.0
0.120836 -0.000587971 0.0
0.152651 -0.00104872 0.0
0.084012 -0.000320602 0.0
0.243067 -0.00534316 0.0
0.246393 -0.00670105 0.0
0.245904 -0.0073593 0.0
0.220813 -0.00355482 0.0
0.234095 -0.00456177 0.0
0.201729 -0.00272032 0.0
0.178972 -0.00177582 0.0
0.240309 -0.008705 0.0
0.233505 -0.00881085 0.0
0.223985 -0.00868898 0.0
0 0 0.0
0.000117705 1.05055e-05 0.0
0 0 0.0
0 0 0.0
-0.00131565 0.00495569 0.0
-0.00127893 0.00328071 0.0
0.211719 -0.00836743 0.0
0.196685 -0.00773976 0.0
0.104555 -0.00282349 0.0
0.0574732 -0.000881988 0.0
0.142071 -0.00489622 0.0
0.172542 -0.0068071 0.0
0 0 0.0
-0.000467852 0.000619806 0.0
-0.000876542 0.00171482 0.0
-0.000300207 0.000245836 0.0
-0.0002712 0.00024913 0.0
0 0 0.0
0.042781 -0.000120274 0.0
0.120497 -0.000554432 0.0
0.152053 -0.00102136 0.0
0.0838073 -0.000304167 0.0
0.242178 -0.00585148 0.0
0.24553 -0.00739619 0.0
0.245261 -0.00818891 0.0
0.219402 -0.00388124 0.0
0.233291 -0.00485689 0.0
0.200633 -0.00285806 0.0
0.151438 -0.00102958 0.0
0.178045 -0.00183169 0.0
0.239949 -0.00951395 0.0
0.230575 -0.00962921 0.0
0.216447 -0.00950824 0.0
0 0 0.0
-0.000172427 0.000143549 0.0
0 0 0.0
0 0 0.0
0 0 0.0
0 0 0.0
-0.0023229 0.00348897 0.0
-0.000362437 0.00424153 0.0
-0.00133485 0.00639354 0.0
-0.0031149 0.00837096 0.0
-0.00265058 0.00575834 0.0
0 0 0.0
-5.51871e-05 0.00619853 0.0
0.197811 -0.00917794 0.0
0.173765 -0.00765988 0.0
0 0 0.0
0.0593044 -0.00108545 0.0
0.10688 -0.00335064 0.0
0.144493 -0.0058942 0.0
0 0 0.0
0 0 0.0
-0.00141622 0.00170335 0.0
-0.00109761 0.000974069 0.0
-0.00104372 0.000668856 0.0
0 0 0.0