# vtk DataFile Version 3.0
Mesh NS-CD Problem
ASCII
DATASET UNSTRUCTURED_GRID
POINTS 10839 float
-2 0.3 0.0
-2 0.4 0.0
-2 0.35 0.0
-2 0.45 0.0
-2 0.5 0.0
-2 0.55 0.0
-2 0 0.0
-2 0.05 0.0
-2 0.85 0.0
-2 0.9 0.0
-2 0.1 0.0
-2 0.15 0.0
-2 0.25 0.0
-2 0.2 0.0
-1.96653 0.266667 0.0
-1.96524 0.415385 0.0
-1.96485 0.315 0.0
-1.96348 0.363636 0.0
-1.96414 0.464286 0.0
-2 0.6 0.0
-1.96538 0.584615 0.0
-1.96538 0.538462 0.0
-1.94979 0 0.0
-1.96653 0.0666666 0.0
-1.93306 0.0333333 0.0
-2 0.8 0.0
-2 0.75 0.0
-2 0.7 0.0
-2 0.65 0.0
-1.96249 0.7375 0.0
-1.96666 0.833333 0.0
-2 1 0.0
-2 0.95 0.0
-1.96249 0.8875 0.0
-1.96666 0.933333 0.0
-1.96234 0.1125 0.0
-1.96653 0.166667 0.0
-1.93724 0.225 0.0
-1.92971 0.28 0.0
-1.93048 0.380769 0.0
-1.93048 0.423077 0.0
-1.89958 0.3375 0.0
-1.9292 0.484203 0.0
-1.92117 0.530907 0.0
-1.96363 0.636364 0.0
-1.93076 0.576923 0.0
-1.89958 0 0.0
-1.88703 0.0375 0.0
-1.90963 0.08 0.0
-1.86611 0.0666666 0.0
-1.93749 0.775 0.0
-1.93635 0.672727 0.0
-1.92999 0.72 0.0
-1.93332 0.866667 0.0
-1.92856 0.821429 0.0
-1.94999 1 0.0
-1.92499 0.9625 0.0
-1.92499 0.925 0.0
-1.89998 0.9 0.0
-1.89958 0.125 0.0
-1.92827 0.178571 0.0
-1.89958 0.233333 0.0
-1.89045 0.290909 0.0
-1.86096 0.311538 0.0
-1.89241 0.392857 0.0
-1.89334 0.448489 0.0
-1.85655 0.357143 0.0
-1.89614 0.653846 0.0
-1.89427 0.504121 0.0
-1.8952 0.559753 0.0
-1.89614 0.615385 0.0
-1.84937 0 0.0
-1.83264 0.0333333 0.0
-1.85655 0.107143 0.0
-1.81172 0.075 0.0
-1.89998 0.766667 0.0
-1.89089 0.709091 0.0
-1.87498 0.85 0.0
-1.85998 0.79 0.0
-1.88748 0.8125 0.0
-1.89998 1 0.0
-1.88748 0.9625 0.0
-1.86664 0.933333 0.0
-1.85712 0.892857 0.0
-1.87448 0.15 0.0
-1.86611 0.194444 0.0
-1.83264 0.133333 0.0
-1.83264 0.2625 0.0
-1.82068 0.321429 0.0
-1.85664 0.404762 0.0
-1.85674 0.452381 0.0
-1.85683 0.5 0.0
-1.81184 0.375 0.0
-1.85712 0.642857 0.0
-1.85693 0.547619 0.0
-1.85702 0.595238 0.0
-1.79917 0 0.0
-1.78482 0.0357143 0.0
-1.79917 0.116667 0.0
-1.76569 0.0666666 0.0
-1.85452 0.745455 0.0
-1.82689 0.692308 0.0
-1.81815 0.781818 0.0
-1.82497 0.825 0.0
-1.84997 1 0.0
-1.8333 0.958333 0.0
-1.81247 0.8875 0.0
-1.81247 0.925 0.0
-1.81742 0.218182 0.0
-1.82427 0.175 0.0
-1.77634 0.145455 0.0
-1.79144 0.242308 0.0
-1.78482 0.285714 0.0
-1.77469 0.332653 0.0
-1.81215 0.529762 0.0
-1.81194 0.422619 0.0
-1.81203 0.470238 0.0
-1.76714 0.392857 0.0
-1.81234 0.625 0.0
-1.79732 0.571429 0.0
-1.74896 0 0.0
-1.73222 0.0333333 0.0
-1.75398 0.105 0.0
-1.71883 0.07 0.0
-1.79227 0.730769 0.0
-1.78007 0.679121 0.0
-1.75765 0.769231 0.0
-1.78178 0.818182 0.0
-1.78996 0.86 0.0
-1.79996 1 0.0
-1.78568 0.964286 0.0
-1.76663 0.922222 0.0
-1.76569 0.1875 0.0
-1.73222 0.15 0.0
-1.74896 0.25 0.0
-1.73714 0.304762 0.0
-1.76743 0.537202 0.0
-1.72869 0.343878 0.0
-1.76732 0.485119 0.0
-1.76723 0.440476 0.0
-1.72243 0.410714 0.0
-1.76757 0.607143 0.0
-1.69875 0 0.0
-1.68369 0.035 0.0
-1.69875 0.1125 0.0
-1.66528 0.075 0.0
-1.74341 0.708974 0.0
-1.73324 0.665934 0.0
-1.70441 0.74478 0.0
-1.71423 0.785714 0.0
-1.72303 0.826923 0.0
-1.74541 0.854545 0.0
-1.74541 0.890909 0.0
-1.74996 1 0.0
-1.73745 0.9625 0.0
-1.71359 0.927273 0.0
-1.68716 0.153846 0.0
-1.7131 0.214286 0.0
-1.70725 0.275 0.0
-1.69712 0.321939 0.0
-1.72279 0.589286 0.0
-1.72261 0.5 0.0
-1.7227 0.544643 0.0
-1.6827 0.355102 0.0
-1.67773 0.428571 0.0
-1.70763 0.464286 0.0
-1.70369 0.62449 0.0
-1.64854 0 0.0
-1.63181 0.0375 0.0
-1.64137 0.142857 0.0
-1.61764 0.0769231 0.0
-1.69458 0.703846 0.0
-1.67471 0.657437 0.0
-1.66143 0.727637 0.0
-1.67125 0.768571 0.0
-1.67851 0.821429 0.0
-1.68841 0.861538 0.0
-1.70904 0.890909 0.0
-1.69995 1 0.0
-1.68176 0.963636 0.0
-1.67267 0.927273 0.0
-1.65427 0.187143 0.0
-1.66718 0.231429 0.0
-1.66554 0.3 0.0
-1.67802 0.571429 0.0
-1.67792 0.523809 0.0
-1.6367 0.366327 0.0
-1.63682 0.423469 0.0
-1.62568 0.502976 0.0
-1.6629 0.470238 0.0
-1.65254 0.618367 0.0
-1.6059 0.307143 0.0
-1.59833 0 0.0
-1.58288 0.0384615 0.0
-1.60563 0.169643 0.0
-1.58179 0.112271 0.0
-1.56964 0.0714286 0.0
-1.64574 0.690385 0.0
-1.62827 0.751429 0.0
-1.63371 0.791071 0.0
-1.64279 0.857143 0.0
-1.65378 0.896154 0.0
-1.64994 1 0.0
-1.6363 0.963636 0.0
-1.61916 0.930769 0.0
-1.61345 0.209107 0.0
-1.62126 0.248571 0.0
-1.56989 0.196429 0.0
-1.63324 0.553571 0.0
-1.58846 0.535714 0.0
-1.59408 0.361905 0.0
-1.59161 0.402211 0.0
-1.58832 0.464286 0.0
-1.61504 0.598581 0.0
-1.59683 0.64359 0.0
-1.57899 0.274107 0.0
-1.56176 0.322381 0.0
-1.54812 0 0.0
-1.53378 0.0357143 0.0
-1.54593 0.147619 0.0
-1.53385 0.0732143 0.0
-1.53393 0.110714 0.0
-1.58522 0.704286 0.0
-1.58709 0.745 0.0
-1.58896 0.785714 0.0
-1.60695 0.830357 0.0
-1.60707 0.892857 0.0
-1.59993 1 0.0
-1.58454 0.965385 0.0
-1.57135 0.928571 0.0
-1.55209 0.241071 0.0
-1.5291 0.198214 0.0
-1.56936 0.570918 0.0
-1.54369 0.517857 0.0
-1.5464 0.380952 0.0
-1.54564 0.427721 0.0
-1.54488 0.47449 0.0
-1.55026 0.606122 0.0
-1.54222 0.677143 0.0
-1.52943 0.282857 0.0
-1.52143 0.33619 0.0
-1.49792 0 0.0
-1.49802 0.05 0.0
-1.49822 0.15 0.0
-1.49312 0.1 0.0
-1.5423 0.717143 0.0
-1.54419 0.767857 0.0
-1.54727 0.819048 0.0
-1.57122 0.861905 0.0
-1.53553 0.914286 0.0
-1.54992 1 0.0
-1.53563 0.964286 0.0
-1.49842 0.25 0.0
-1.48831 0.2 0.0
-1.5214 0.558929 0.0
-1.49891 0.5 0.0
-1.49871 0.4 0.0
-1.47631 0.45 0.0
-1.49911 0.6 0.0
-1.49921 0.65 0.0
-1.49931 0.7 0.0
-1.48111 0.35 0.0
-1.48351 0.3 0.0
-1.44771 0 0.0
-1.44782 0.05 0.0
-1.44804 0.15 0.0
-1.44793 0.1 0.0
-1.49941 0.75 0.0
-1.49951 0.8 0.0
-1.49981 0.95 0.0
-1.49961 0.85 0.0
-1.49971 0.9 0.0
-1.49991 1 0.0
-1.44826 0.25 0.0
-1.43815 0.2 0.0
-1.47151 0.55 0.0
-1.44881 0.5 0.0
-1.44859 0.4 0.0
-1.42619 0.45 0.0
-1.44913 0.65 0.0
-1.44902 0.6 0.0
-1.44935 0.75 0.0
-1.44924 0.7 0.0
-1.43972 0.35 0.0
-1.43336 0.3 0.0
-1.3975 0 0.0
-1.39762 0.05 0.0
-1.39786 0.15 0.0
-1.39274 0.1 0.0
-1.44957 0.85 0.0
-1.44946 0.8 0.0
-1.4523 0.95 0.0
-1.44968 0.9 0.0
-1.4499 1 0.0
-1.3981 0.25 0.0
-1.38798 0.2 0.0
-1.42141 0.55 0.0
-1.3987 0.5 0.0
-1.39834 0.35 0.0
-1.37845 0.4 0.0
-1.37607 0.45 0.0
-1.40784 0.65 0.0
-1.39894 0.6 0.0
-1.41185 0.75 0.0
-1.39918 0.7 0.0
-1.38322 0.3 0.0
-1.34729 0 0.0
-1.34492 0.05 0.0
-1.34018 0.15 0.0
-1.34255 0.1 0.0
-1.40707 0.85 0.0
-1.39941 0.8 0.0
-1.39977 0.95 0.0
-1.39965 0.9 0.0
-1.39989 1 0.0
-1.33781 0.2 0.0
-1.33544 0.25 0.0
-1.37131 0.55 0.0
-1.34859 0.5 0.0
-1.33833 0.4 0.0
-1.3307 0.35 0.0
-1.32595 0.45 0.0
-1.34885 0.6 0.0
-1.36655 0.65 0.0
-1.36179 0.75 0.0
-1.34911 0.7 0.0
-1.33307 0.3 0.0
-1.29708 0 0.0
-1.29722 0.05 0.0
-1.2975 0.15 0.0
-1.29236 0.1 0.0
-1.35703 0.85 0.0
-1.34937 0.8 0.0
-1.34988 1 0.0
-1.34962 0.9 0.0
-1.35226 0.95 0.0
-1.28528 0.25 0.0
-1.28764 0.2 0.0
-1.28931 0.35 0.0
-1.32121 0.55 0.0
-1.29848 0.5 0.0
-1.28709 0.45 0.0
-1.2982 0.4 0.0
-1.29876 0.6 0.0
-1.31647 0.65 0.0
-1.29918 0.75 0.0
-1.29904 0.7 0.0
-1.28292 0.3 0.0
-1.24687 0 0.0
-1.24702 0.05 0.0
-1.24717 0.1 0.0
-1.24732 0.15 0.0
-1.29946 0.85 0.0
-1.29932 0.8 0.0
-1.29987 1 0.0
-1.29974 0.95 0.0
-1.30462 0.9 0.0
-1.24762 0.25 0.0
-1.23747 0.2 0.0
-1.24792 0.35 0.0
-1.22807 0.4 0.0
-1.27111 0.55 0.0
-1.24837 0.5 0.0
-1.24822 0.45 0.0
-1.24867 0.6 0.0
-1.26639 0.65 0.0
-1.26167 0.75 0.0
-1.24897 0.7 0.0
-1.23277 0.3 0.0
-1.19667 0 0.0
-1.19683 0.05 0.0
-1.18964 0.15 0.0
-1.19198 0.1 0.0
-1.25695 0.85 0.0
-1.24927 0.8 0.0
-1.25223 0.95 0.0
-1.24987 1 0.0
-1.24957 0.9 0.0
-1.1873 0.2 0.0
-1.18496 0.25 0.0
-1.18028 0.35 0.0
-1.17794 0.4 0.0
-1.1981 0.45 0.0
-1.19842 0.55 0.0
-1.19826 0.5 0.0
-1.19858 0.6 0.0
-1.19874 0.65 0.0
-1.19906 0.75 0.0
-1.1989 0.7 0.0
-1.18262 0.3 0.0
-1.14646 0 0.0
-1.14663 0.05 0.0
-1.1418 0.1 0.0
-1.13713 0.2 0.0
-1.14697 0.15 0.0
-1.20691 0.85 0.0
-1.20926 0.8 0.0
-1.20221 0.95 0.0
-1.19986 1 0.0
-1.20456 0.9 0.0
-1.13997 0.3 0.0
-1.14731 0.25 0.0
-1.13781 0.4 0.0
-1.13014 0.35 0.0
-1.12548 0.45 0.0
-1.14815 0.5 0.0
-1.15962 0.55 0.0
-1.14849 0.6 0.0
-1.15745 0.65 0.0
-1.16155 0.75 0.0
-1.14917 0.8 0.0
-1.14883 0.7 0.0
-1.09625 0 0.0
-1.09661 0.1 0.0
-1.09393 0.05 0.0
-1.09697 0.2 0.0
-1.08929 0.15 0.0
-1.15687 0.85 0.0
-1.14985 1 0.0
-1.15219 0.95 0.0
-1.14951 0.9 0.0
-1.09733 0.3 0.0
-1.08465 0.25 0.0
-1.09769 0.4 0.0
-1.08 0.35 0.0
-1.08661 0.45 0.0
-1.09804 0.5 0.0
-1.12082 0.55 0.0
-1.10916 0.8 0.0
-1.10629 0.7 0.0
-1.0984 0.6 0.0
-1.11616 0.65 0.0
-1.11149 0.75 0.0
-1.04604 0 0.0
-1.04623 0.05 0.0
-1.04642 0.1 0.0
-1.0468 0.2 0.0
-1.03911 0.15 0.0
-1.09948 0.9 0.0
-1.0993 0.85 0.0
-1.09984 1 0.0
-1.09966 0.95 0.0
-1.04718 0.3 0.0
-1.03449 0.25 0.0
-1.04756 0.4 0.0
-1.02986 0.35 0.0
-1.04775 0.45 0.0
-1.04794 0.5 0.0
-1.04813 0.55 0.0
-1.05911 0.8 0.0
-1.04831 0.6 0.0
-1.06376 0.7 0.0
-1.0485 0.65 0.0
-1.04888 0.75 0.0
-0.995833 0 0.0
-0.991231 0.1 0.0
-0.996033 0.05 0.0
-0.986629 0.2 0.0
-0.98893 0.15 0.0
-1.05447 0.9 0.0
-1.04926 0.85 0.0
-1.04983 1 0.0
-1.04964 0.95 0.0
-0.984328 0.25 0.0
-0.99703 0.3 0.0
-0.997429 0.4 0.0
-0.997628 0.45 0.0
-0.979726 0.35 0.0
-0.997827 0.5 0.0
-0.998027 0.55 0.0
-0.998226 0.6 0.0
-0.961416 0.475 0.0
-1.00907 0.8 0.0
-0.998426 0.65 0.0
-0.998625 0.7 0.0
-1.01138 0.75 0.0
-0.945625 0 0.0
-0.946044 0.1 0.0
-0.943334 0.05 0.0
-0.946463 0.2 0.0
-0.938752 0.15 0.0
-1.00444 0.9 0.0
-1.00675 0.85 0.0
-0.999821 1 0.0
-1.00213 0.95 0.0
-0.93417 0.25 0.0
-0.946881 0.3 0.0
-0.9473 0.4 0.0
-0.929588 0.35 0.0
-0.925005 0.45 0.0
-0.960371 0.525 0.0
-0.959325 0.575 0.0
-0.958279 0.625 0.0
-0.922714 0.5 0.0
-0.959017 0.8 0.0
-0.957233 0.675 0.0
-0.952999 0.7125 0.0
-0.948766 0.75 0.0
-0.895417 0 0.0
-0.895855 0.1 0.0
-0.893136 0.05 0.0
-0.896294 0.2 0.0
-0.888573 0.15 0.0
-0.949184 0.85 0.0
-0.954415 0.9 0.0
-0.949812 1 0.0
-0.949603 0.95 0.0
-0.884011 0.25 0.0
-0.896733 0.3 0.0
-0.874887 0.45 0.0
-0.879449 0.35 0.0
-0.897171 0.4 0.0
-0.920423 0.55 0.0
-0.918132 0.6 0.0
-0.915841 0.65 0.0
-0.872606 0.5 0.0
-0.908968 0.8 0.0
-0.91355 0.7 0.0
-0.898707 0.75 0.0
-0.845208 0 0.0
-0.845438 0.05 0.0
-0.845667 0.1 0.0
-0.845896 0.15 0.0
-0.833853 0.25 0.0
-0.846126 0.2 0.0
-0.899146 0.85 0.0
-0.904386 0.9 0.0
-0.899584 0.95 0.0
-0.899804 1 0.0
-0.838062 0.35 0.0
[...]
POINT_DATA 10839
VECTORS Velocity float
0.21 0 0.0
0.24 0 0.0
0.2275 0 0.0
0.2475 0 0.0
0.25 0 0.0
0.2475 0 0.0
0 0 0.0
0.0475 0 0.0
0.1275 0 0.0
0.09 0 0.0
0.09 0 0.0
0.1275 0 0.0
0.1875 0 0.0
0.16 0 0.0
0.195557 -2.3988e-05 0.0
0.242841 -3.27576e-05 0.0
0.215776 -2.85664e-05 0.0
0.231406 -3.22143e-05 0.0
0.248725 -3.48819e-05 0.0
0.24 0 0.0
0.24284 -3.26834e-05 0.0
0.24852 -3.35915e-05 0.0
0 0 0.0
0.0622239 -4.16145e-06 0.0
0.0322269 -2.75e-06 0.0
0.16 0 0.0
0.1875 0 0.0
0.21 0 0.0
0.2275 0 0.0
0.193592 -2.69259e-05 0.0
0.138887 -1.49261e-05 0.0
0 0 0.0
0.0475 0 0.0
0.0998415 -1.03543e-05 0.0
0.0622206 -4.208e-06 0.0
0.0998462 -1.08205e-05 0.0
0.138891 -1.50607e-05 0.0
0.17438 -3.7808e-05 0.0
0.201606 -5.18326e-05 0.0
0.235787 -6.33324e-05 0.0
0.244085 -6.62803e-05 0.0
0.223602 -8.49279e-05 0.0
0.249751 -6.92572e-05 0.0
0.249044 -7.71845e-05 0.0
0.231404 -3.27381e-05 0.0
0.244081 -6.54927e-05 0.0
0 0 0.0
0.036108 -5.32957e-06 0.0
0.0736126 -1.4915e-05 0.0
0.062249 -1.6355e-05 0.0
0.17437 -3.72476e-05 0.0
0.220162 -5.18237e-05 0.0
0.201594 -5.19074e-05 0.0
0.115548 -2.22966e-05 0.0
0.146676 -3.45893e-05 0.0
0 0 0.0
0.0360875 -3.58584e-06 0.0
0.0693661 -1.16511e-05 0.0
0.0899835 -2.3162e-05 0.0
0.109391 -3.13599e-05 0.0
0.146691 -3.39238e-05 0.0
0.178902 -6.3464e-05 0.0
0.206293 -8.30565e-05 0.0
0.214501 -0.000112026 0.0
0.238527 -9.93583e-05 0.0
0.24735 -0.00010348 0.0
0.229607 -0.000126547 0.0
0.226323 -8.92442e-05 0.0
0.249983 -0.000103995 0.0
0.246426 -0.000101166 0.0
0.23668 -9.52279e-05 0.0
0 0 0.0
0.0322504 -6.03185e-06 0.0
0.0956965 -3.5642e-05 0.0
0.0694292 -2.68656e-05 0.0
0.178876 -6.2492e-05 0.0
0.206269 -8.36806e-05 0.0
0.127476 -4.81412e-05 0.0
0.165873 -7.91398e-05 0.0
0.152325 -5.66078e-05 0.0
0 0 0.0
0.0360797 -5.16163e-06 0.0
0.0621959 -1.61797e-05 0.0
0.09563 -3.63096e-05 0.0
0.127525 -4.86108e-05 0.0
0.156661 -7.06989e-05 0.0
0.115601 -5.58565e-05 0.0
0.193626 -0.000116823 0.0
0.218141 -0.000147955 0.0
0.24094 -0.000134867 0.0
0.247737 -0.000139889 0.0
0.25 -0.000141421 0.0
0.234398 -0.000171377 0.0
0.229576 -0.000124793 0.0
0.247727 -0.000139579 0.0
0.240919 -0.000134627 0.0
0 0 0.0
0.0344869 -8.36606e-06 0.0
0.103121 -5.49156e-05 0.0
0.0623028 -2.72332e-05 0.0
0.189727 -9.92029e-05 0.0
0.212989 -0.000138755 0.0
0.170534 -0.000107484 0.0
0.144329 -7.97079e-05 0.0
0 0 0.0
0.0398983 -8.903e-06 0.0
0.0997863 -4.98805e-05 0.0
0.0693214 -2.64189e-05 0.0
0.170624 -0.000107619 0.0
0.144421 -8.14354e-05 0.0
0.124377 -8.26476e-05 0.0
0.18365 -0.000136195 0.0
0.204132 -0.00016317 0.0
0.222038 -0.000192242 0.0
0.249109 -0.000185873 0.0
0.244027 -0.000180902 0.0
0.24912 -0.000185881 0.0
0.238551 -0.000218463 0.0
0.234353 -0.000170366 0.0
0.244883 -0.000196 0.0
0 0 0.0
0.0322915 -8.8694e-06 0.0
0.0940741 -5.77786e-05 0.0
0.065217 -3.45072e-05 0.0
0.196696 -0.000148967 0.0
0.217871 -0.000183176 0.0
0.177437 -0.000151281 0.0
0.14869 -0.000105397 0.0
0.120329 -7.36943e-05 0.0
0 0 0.0
0.0343911 -8.44499e-06 0.0
0.0716444 -3.45912e-05 0.0
0.152424 -0.000118295 0.0
0.127615 -0.000102786 0.0
0.187578 -0.000169141 0.0
0.211951 -0.000210858 0.0
0.248605 -0.000231006 0.0
0.225686 -0.000239011 0.0
0.249783 -0.000232687 0.0
0.246474 -0.000228752 0.0
0.242064 -0.000267997 0.0
0.23849 -0.000217846 0.0
0 0 0.0
0.0338737 -1.11327e-05 0.0
0.099993 -7.73357e-05 0.0
0.0695448 -4.6023e-05 0.0
0.20626 -0.000197355 0.0
0.222404 -0.000230198 0.0
0.189975 -0.000205237 0.0
0.168253 -0.000165617 0.0
0.143003 -0.000126913 0.0
0.124194 -9.35198e-05 0.0
0.0970841 -6.27406e-05 0.0
0 0 0.0
0.0360213 -1.07722e-05 0.0
0.0673152 -3.711e-05 0.0
0.130335 -0.000124408 0.0
0.168483 -0.000166437 0.0
0.199473 -0.00021731 0.0
0.218379 -0.000255198 0.0
0.241992 -0.000268655 0.0
0.25 -0.000280472 0.0
0.247989 -0.000277193 0.0
0.229082 -0.000288119 0.0
0.244938 -0.000319527 0.0
0.248741 -0.000294423 0.0
0.234445 -0.000275365 0.0
0 0 0.0
0.0362319 -1.43737e-05 0.0
0.122659 -0.000127598 0.0
0.071229 -5.4515e-05 0.0
0.208349 -0.000241729 0.0
0.225126 -0.000287939 0.0
0.198047 -0.000251157 0.0
0.177725 -0.00020783 0.0
0.146525 -0.000153088 0.0
0.119132 -0.000106803 0.0
0.0970512 -7.12494e-05 0.0
0 0 0.0
0.0349393 -1.20725e-05 0.0
0.067278 -4.18267e-05 0.0
0.152302 -0.000174206 0.0
0.178018 -0.000212764 0.0
0.210116 -0.000269345 0.0
0.244858 -0.000319451 0.0
0.24942 -0.00032819 0.0
0.232226 -0.000339353 0.0
0.244197 -0.000363889 0.0
0.249989 -0.000388544 0.0
0.249132 -0.000344949 0.0
0.235912 -0.000330235 0.0
0.212964 -0.000329414 0.0
0 0 0.0
0.0371606 -1.69538e-05 0.0
0.141111 -0.00017788 0.0
0.0999583 -0.000107414 0.0
0.0665996 -5.31615e-05 0.0
0.213628 -0.000294531 0.0
0.186606 -0.000256395 0.0
0.165083 -0.000208529 0.0
0.12224 -0.000128263 0.0
0.0928658 -7.82414e-05 0.0
0 0 0.0
0.0349098 -1.34918e-05 0.0
0.0642268 -4.44538e-05 0.0
0.165598 -0.000223024 0.0
0.186968 -0.000262178 0.0
0.158125 -0.000233535 0.0
0.247091 -0.000373754 0.0
0.248691 -0.00043002 0.0
0.231053 -0.000381421 0.0
0.240526 -0.00040712 0.0
0.248758 -0.000429652 0.0
0.240202 -0.000380284 0.0
0.229255 -0.000373759 0.0
0.199183 -0.000322608 0.0
0.218635 -0.000385819 0.0
0 0 0.0
0.0346482 -1.66426e-05 0.0
0.126171 -0.000173009 0.0
0.0681783 -6.01247e-05 0.0
0.0988208 -0.000117071 0.0
0.208081 -0.000337351 0.0
0.189758 -0.000294022 0.0
0.168124 -0.000243937 0.0
0.140618 -0.000176518 0.0
0.0954083 -9.31857e-05 0.0
0 0 0.0
0.0332539 -1.38178e-05 0.0
0.066056 -5.29767e-05 0.0
0.183225 -0.000304927 0.0
0.159265 -0.00026157 0.0
0.244898 -0.000443513 0.0
0.24966 -0.000487092 0.0
0.235962 -0.000446749 0.0
0.244859 -0.000472244 0.0
0.249378 -0.000485861 0.0
0.238619 -0.000449215 0.0
0.218419 -0.000406006 0.0
0.203106 -0.000376753 0.0
0.223372 -0.000441431 0.0
0 0 0.0
0.0478054 -3.32747e-05 0.0
0.127923 -0.000197425 0.0
0.0904253 -0.00010993 0.0
0.202606 -0.000362899 0.0
0.177965 -0.000298361 0.0
0.147885 -0.000223739 0.0
0.118718 -0.000146508 0.0
0.0780264 -7.82157e-05 0.0
0 0 0.0
0.0342322 -1.62901e-05 0.0
0.187834 -0.000361362 0.0
0.160403 -0.000291237 0.0
0.246451 -0.000507201 0.0
0.25 -0.00054666 0.0
0.240141 -0.000516149 0.0
0.247577 -0.000569228 0.0
0.239859 -0.000515774 0.0
0.22729 -0.000477535 0.0
0.209727 -0.00042478 0.0
0.227725 -0.000501245 0.0
0.210292 -0.000442665 0.0
0 0 0.0
0.047869 -3.71194e-05 0.0
0.128019 -0.000220545 0.0
0.090508 -0.000120917 0.0
0.187167 -0.000359495 0.0
0.159615 -0.000281658 0.0
0.0471986 -3.26066e-05 0.0
0.127081 -0.000194686 0.0
0.0895876 -0.000107569 0.0
0 0 0.0
0.187911 -0.000406348 0.0
0.160494 -0.000326152 0.0
0.247419 -0.000575781 0.0
0.249999 -0.000616268 0.0
0.240173 -0.000582218 0.0
0.247595 -0.000640247 0.0
0.227243 -0.00053801 0.0
0.239826 -0.000581142 0.0
0.187091 -0.000404125 0.0
0.209664 -0.000478242 0.0
0.227766 -0.000550517 0.0
0.210358 -0.000497842 0.0
0 0 0.0
0.047939 -4.07181e-05 0.0
0.128126 -0.000245329 0.0
0.0906202 -0.000135651 0.0
0.126985 -0.000218282 0.0
0.159528 -0.000316219 0.0
0.0471392 -3.61607e-05 0.0
0.0894972 -0.000119599 0.0
0 0 0.0
0.187998 -0.000454011 0.0
0.160597 -0.000363743 0.0
0.247402 -0.000646597 0.0
0.249999 -0.000690745 0.0
0.227811 -0.000604125 0.0
0.240225 -0.000681341 0.0
0.247614 -0.000716843 0.0
0.227198 -0.000589298 0.0
0.239789 -0.000651325 0.0
0.187026 -0.00043845 0.0
0.209592 -0.000535292 0.0
0.210431 -0.000556748 0.0
0 0 0.0
0.0480211 -4.52871e-05 0.0
0.128265 -0.000276066 0.0
0.0907346 -0.000149874 0.0
0.126896 -0.000238513 0.0
0.159428 -0.000352267 0.0
0.0470672 -4.01616e-05 0.0
0.0893972 -0.000132053 0.0
0 0 0.0
0.160712 -0.000403636 0.0
0.188121 -0.000517854 0.0
0.247381 -0.000722506 0.0
0.249999 -0.000770694 0.0
0.24026 -0.000744213 0.0
0.227896 -0.000699048 0.0
0.247635 -0.000798083 0.0
0.239747 -0.000726111 0.0
0.227149 -0.000645238 0.0
0.186932 -0.000487902 0.0
0.209512 -0.000595945 0.0
0.210515 -0.000620424 0.0
0 0 0.0
0.0481038 -4.99628e-05 0.0
0.12838 -0.000301078 0.0
0.0908608 -0.000165392 0.0
0.126779 -0.000264004 0.0
0.159316 -0.000391202 0.0
0 0 0.0
0.0892854 -0.000146046 0.0
0.0469945 -4.41228e-05 0.0
0.188233 -0.00057613 0.0
0.16084 -0.000447517 0.0
0.227954 -0.000762365 0.0
0.247359 -0.000804811 0.0
0.249998 -0.000857302 0.0
0.247654 -0.0008666 0.0
0.240297 -0.000809947 0.0
0.2397 -0.000807155 0.0
0.227082 -0.000717707 0.0
0.186798 -0.000554598 0.0
0.209422 -0.000662255 0.0
0.210607 -0.000688462 0.0
0 0 0.0
0.0481979 -5.50895e-05 0.0
0.0909861 -0.000180266 0.0
0.128527 -0.000332216 0.0
0.126629 -0.000295725 0.0
0.159192 -0.000433005 0.0
0 0 0.0
0.0469074 -4.851e-05 0.0
0.0891758 -0.00015893 0.0
0.188327 -0.000621495 0.0
0.160982 -0.000495198 0.0
0.228017 -0.000830356 0.0
0.24037 -0.000935913 0.0
0.247333 -0.000894059 0.0
0.249997 -0.000950626 0.0
0.247674 -0.000938708 0.0
0.239647 -0.000894864 0.0
0.227008 -0.000796326 0.0
0.186707 -0.000598651 0.0
0.209321 -0.000732924 0.0
0.210711 -0.000763013 0.0
0 0 0.0
0.0483027 -6.04981e-05 0.0
0.128718 -0.000372882 0.0
0.0911553 -0.000201418 0.0
0.126505 -0.000321377 0.0
0.159054 -0.000478231 0.0
0.0468204 -5.2658e-05 0.0
0 0 0.0
0.0890282 -0.000176275 0.0
0.16114 -0.000547149 0.0
0.188497 -0.000703678 0.0
0.228135 -0.000951701 0.0
0.24043 -0.00103751 0.0
0.247702 -0.00104018 0.0
0.247291 -0.00103461 0.0
0.249996 -0.00105387 0.0
0.239589 -0.000992286 0.0
0.226895 -0.000911216 0.0
0.186542 -0.000677104 0.0
0.209209 -0.000811076 0.0
0.210826 -0.000843634 0.0
0 0 0.0
0.0484169 -6.64234e-05 0.0
0.091325 -0.000221036 0.0
0.161315 -0.00060229 0.0
0.128874 -0.000404472 0.0
0.126346 -0.000353681 0.0
0.158932 -0.000517102 0.0
0.0467193 -5.80809e-05 0.0
0 0 0.0
0.0888932 -0.000192079 0.0
0.210933 -0.000918412 0.0
0.188613 -0.000759501 0.0
0.240482 -0.00112327 0.0
0.228232 -0.00105445 0.0
0.247749 -0.00120074 0.0
0.249996 -0.00116487 0.0
0.247265 -0.00111833 0.0
0.239524 -0.00109639 0.0
0.226816 -0.000989059 0.0
0.18643 -0.000728861 0.0
0.15873 -0.000581193 0.0
0.209085 -0.000894745 0.0
0 0 0.0
0.0914951 -0.000241818 0.0
0.0485514 -7.39341e-05 0.0
0.161468 -0.000652876 0.0
0.129105 -0.000453975 0.0
0.12617 -0.00038932 0.0
0 0 0.0
0.0466088 -6.37074e-05 0.0
0.0887135 -0.000212874 0.0
0.211051 -0.000997726 0.0
0.188822 -0.000860817 0.0
0.240539 -0.00121555 0.0
0.228341 -0.00116548 0.0
0.247776 -0.00129942 0.0
0.249993 -0.00128732 0.0
0.247238 -0.00121031 0.0
0.158581 -0.000625429 0.0
0.208969 -0.000971904 0.0
0.239451 -0.00120916 0.0
0.22673 -0.00107378 0.0
0.186268 -0.000803795 0.0
0 0 0.0
0.048684 -8.07399e-05 0.0
0.0916984 -0.000266026 0.0
0.161679 -0.000719261 0.0
0.129331 -0.000500853 0.0
0.0885319 -0.000232935 0.0
0.125945 -0.000433928 0.0
0 0 0.0
0.0464817 -7.0252e-05 0.0
0.211202 -0.00110109 0.0
0.189013 -0.000950652 0.0
0.240616 -0.00134186 0.0
0.22846 -0.00128744 0.0
0.247806 -0.00140489 0.0
0.249993 -0.0014224 0.0
0.247179 -0.00139367 0.0
0.158378 -0.000687606 0.0
0.239371 -0.00133497 0.0
0.208843 -0.00105297 0.0
0.226576 -0.00122658 0.0
0.186041 -0.000909425 0.0
0 0 0.0
0.0919482 -0.000296284 0.0
0.0488374 -8.89486e-05 0.0
0.161958 -0.000808095 0.0
0.129579 -0.000552424 0.0
0.0883539 -0.000253317 0.0
0.125728 -0.00047778 0.0
0 0 0.0
0.0463475 -7.71576e-05 0.0
0.189221 -0.00105038 0.0
0.21137 -0.00121578 0.0
0.240703 -0.00148279 0.0
0.247849 -0.00154811 0.0
0.228592 -0.00142083 0.0
0.24999 -0.00156712 0.0
0.247134 -0.00154062 0.0
0.239283 -0.00147016 0.0
0.249559 -0.00167984 0.0
0.158153 -0.000755765 0.0
0.226444 -0.00135299 0.0
0.208626 -0.00119383 0.0
0.18589 -0.000977316 0.0
0 0 0.0
0.0921768 -0.000324081 0.0
0.0490176 -9.91963e-05 0.0
0.162167 -0.00087516 0.0
0.129852 -0.000609324 0.0
0.0881379 -0.000277786 0.0
0.125525 -0.000517814 0.0
0 0 0.0
0.0462091 -8.43014e-05 0.0
0.189452 -0.00115924 0.0
0.211556 -0.00134231 0.0
0.240793 -0.00163452 0.0
0.228739 -0.00157001 0.0
0.247915 -0.00178671 0.0
0.249164 -0.00167961 0.0
0.243772 -0.00163008 0.0
0.233389 -0.00153104 0.0
0.249985 -0.00181728 0.0
0.157907 -0.000830572 0.0
0.218022 -0.00138634 0.0
0.203215 -0.00125355 0.0
0.185614 -0.00109979 0.0
0 0 0.0
0.0924509 -0.000357526 0.0
0.0492047 -0.000108858 0.0
0.162448 -0.000966392 0.0
0.130155 -0.000673035 0.0
0.125226 -0.000576897 0.0
0.0878999 -0.000305098 0.0
0 0 0.0
0.046042 -9.22044e-05 0.0
0.189708 -0.00128042 0.0
0.21176 -0.00148219 0.0
0.247964 -0.00196903 0.0
0.228899 -0.00173308 0.0
0.2409 -0.00180498 0.0
0.247051 -0.00179435 0.0
0.239119 -0.00171745 0.0
0.226197 -0.00158787 0.0
0.249977 -0.00200356 0.0
0.157633 -0.000914088 0.0
0.208298 -0.00140638 0.0
0.185365 -0.00121071 0.0
0 0 0.0
0.0494019 -0.000119414 0.0
0.0927544 -0.000395482 0.0
0.130438 -0.000732044 0.0
0.189989 -0.00141247 0.0
0.162762 -0.00106744 0.0
0.124936 -0.000633768 0.0
0.0876381 -0.000335293 0.0
0.0458649 -0.000101236 0.0
0 0 0.0
0.229044 -0.00188168 0.0
0.211987 -0.00163893 0.0
0.248009 -0.00212684 0.0
0.241012 -0.0019951 0.0
0.226026 -0.00174739 0.0
0.246986 -0.00197685 0.0
0.238998 -0.00189152 0.0
0.249973 -0.00220884 0.0
0.185094 -0.00133036 0.0
0.157271 -0.00102196 0.0
0.208004 -0.001592 0.0
0 0 0.0
0.0496307 -0.000132579 0.0
0.0931267 -0.000441574 0.0
0.130801 -0.00080792 0.0
0.190219 -0.00152598 0.0
0.16318 -0.00120831 0.0
0.124619 -0.000695315 0.0
0.0873224 -0.000371627 0.0
0.0456725 -0.000110708 0.0
0 0 0.0
0.124267 -0.000765204 0.0
0.2292 -0.00203748 0.0
0.212315 -0.00187115 0.0
0.241188 -0.00229516 0.0
0.248055 -0.00229373 0.0
0.225767 -0.00198717 0.0
0.238869 -0.00208107 0.0
0.246918 -0.0021797 0.0
0.24996 -0.0024352 0.0
0.184794 -0.00146207 0.0
0.156933 -0.00112656 0.0
0.207752 -0.00175439 0.0
0 0 0.0
0.0498834 -0.000146445 0.0
0.0935037 -0.000489138 0.0
0.131204 -0.000894757 0.0
0.190557 -0.00168572 0.0
0.163574 -0.00133941 0.0
0.045457 -0.000122777 0.0
0.0870008 -0.000409561 0.0
0 0 0.0
0.123944 -0.000827422 0.0
0.229408 -0.00225604 0.0
0.2126 -0.00207205 0.0
0.241329 -0.00253524 0.0
0.248115 -0.00253451 0.0
0.225586 -0.00215182 0.0
0.238727 -0.00228957 0.0
0.24995 -0.00268643 0.0
0.246801 -0.00250876 0.0
0.184548 -0.00156651 0.0
0.156563 -0.00123833 0.0
0.207475 -0.00192714 0.0
0 0 0.0
0.0501609 -0.000161595 0.0
0.0939187 -0.000540911 0.0
0.13172 -0.00100544 0.0
0.191023 -0.00191421 0.0
0.212911 -0.00229786 0.0
0.164006 -0.00148751 0.0
0.0452366 -0.000134255 0.0
0.0866514 -0.000449926 0.0
0 0 0.0
0.12353 -0.000908937 0.0
0.229716 -0.0025815 0.0
0.241449 -0.00275125 0.0
0.248182 -0.00279991 0.0
0.249935 -0.00289423 0.0
0.225395 -0.00232475 0.0
0.238559 -0.00252295 0.0
0.246707 -0.00276352 0.0
0.156156 -0.00136149 0.0
0.184194 -0.00172055 0.0
0.207167 -0.00211618 0.0
0 0 0.0
0.0504896 -0.000180976 0.0
0.094384 -0.000602799 0.0
0.132226 -0.00112026 0.0
0.191339 -0.00207342 0.0
0.213252 -0.00254551 0.0
0.164487 -0.00165382 0.0
0.0449803 -0.000147176 0.0
0.0862663 -0.000494386 0.0
0 0 0.0
0.155804 -0.0014606 0.0
0.0858458 -0.00054073 0.0
0.123004 -0.00101013 0.0
0.229974 -0.00287308 0.0
0.241575 -0.00297514 0.0
0.248281 -0.00323463 0.0
0.249923 -0.0031122 0.0
0.246627 -0.00298045 0.0
0.225139 -0.00255206 0.0
0.238305 -0.00288387 0.0
0.183701 -0.00192885 0.0
0.206882 -0.00229555 0.0
0.230205 -0.00312303 0.0
0 0 0.0
0.0508372 -0.000201796 0.0
0.132788 -0.00125144 0.0
0.0949012 -0.000674599 0.0
0.213632 -0.00283302 0.0
0.191909 -0.00236704 0.0
0.165019 -0.00184263 0.0
0.0446866 -0.000161814 0.0
0 0 0.0
0.183374 -0.00206931 0.0
0.155325 -0.00160102 0.0
0.122495 -0.00110874 0.0
0.0443734 -0.000178878 0.0
0.0853816 -0.000593947 0.0
0.241749 -0.00329577 0.0
0.248337 -0.00349865 0.0
0.249892 -0.00343348 0.0
0.249867 -0.00370011 0.0
0.246533 -0.00321045 0.0
0.224848 -0.00280415 0.0
0.238085 -0.00317222 0.0
0.20657 -0.00247654 0.0
0.230442 -0.00340113 0.0
0.051209 -0.000226195 0.0
0 0 0.0
0.133316 -0.00137526 0.0
0.0954762 -0.000755094 0.0
0.214043 -0.00315351 0.0
0.192293 -0.00257154 0.0
0.165612 -0.00206061 0.0
0 0 0.0
0.182904 -0.00225829 0.0
0.154691 -0.00177808 0.0
0.122032 -0.00118988 0.0
0.0440531 -0.000194843 0.0
0.0848776 -0.000648954 0.0
0.242004 -0.00380834 0.0
0.248394 -0.00377602 0.0
0.249831 -0.00398017 0.0
0.246338 -0.00368109 0.0
0.224532 -0.00307279 0.0
0.23785 -0.00348473 0.0
0.206043 -0.00278792 0.0
0.230768 -0.00378458 0.0
0 0 0.0
0.0516435 -0.000256256 0.0
0.134001 -0.00154571 0.0
0.0960605 -0.000842233 0.0
0.166268 -0.00230651 0.0
0.214496 -0.00352109 0.0
0.192991 -0.00295082 0.0
0 0 0.0
0 0 0.0
0.182384 -0.00246608 0.0
0.154105 -0.00194074 0.0
0.121437 -0.00129732 0.0
0.0843288 -0.000706698 0.0
0.0436846 -0.000211695 0.0
0.242202 -0.00422486 0.0
0.248459 -0.0041786 0.0
0.237634 -0.00375356 0.0
0.249775 -0.0043875 0.0
0.246169 -0.0040552 0.0
0.224175 -0.00336904 0.0
0.205582 -0.00304449 0.0
0.242362 -0.00459797 0.0
0.231101 -0.0042151 0.0
0.0521297 -0.000288174 0.0
0.096776 -0.0009475 0.0
0.134772 -0.00174837 0.0
0.166849 -0.00253975 0.0
0.214992 -0.00393339 0.0
0.193455 -0.00322679 0.0
0 0 0.0
0 0 0.0
0.153601 -0.00206616 0.0
0.181667 -0.00273438 0.0
0.0837935 -0.000757414 0.0
0.120691 -0.00142278 0.0
0.0432822 -0.000231204 0.0
0.248554 -0.00482307 0.0
0.249691 -0.00484189 0.0
0.205078 -0.00331816 0.0
0.237394 -0.00403423 0.0
0.246024 -0.00436909 0.0
0.223629 -0.00379765 0.0
0.242532 -0.00498861 0.0
0.231608 -0.00488336 0.0
0.215523 -0.00440699 0.0
0.0527179 -0.000330029 0.0
0.0975903 -0.00108218 0.0
0.135772 -0.0020236 0.0
0.167645 -0.00286074 0.0
0.1943 -0.00373961 0.0
0 0 0.0
0 0 0.0
0.152775 -0.00226758 0.0
0.181025 -0.00297009 0.0
0.0830904 -0.000823287 0.0
0.119983 -0.00153299 0.0
0.0428301 -0.000249342 0.0
0.245856 -0.00470314 0.0
0.249587 -0.00533027 0.0
0.248593 -0.00534515 0.0
0.204519 -0.00360661 0.0
0.237065 -0.00442024 0.0
0.223164 -0.00415464 0.0
0.180321 -0.0032108 0.0
0.242816 -0.00577535 0.0
0 0 0.0
0.231985 -0.00546906 0.0
0.195053 -0.00422962 0.0
0.216093 -0.00494103 0.0
0.053337 -0.000380494 0.0
0.136613 -0.00227409 0.0
0.0986231 -0.00126958 0.0
0.168712 -0.00334426 0.0
0 0 0.0
0 0 0.0
0 0 0.0
0 0 0.0
0 0 0.0
0.0423888 -0.000264941 0.0
0.119214 -0.00164732 0.0
0.152015 -0.00244445 0.0
0.0824694 -0.000877733 0.0
0.245604 -0.00515483 0.0
0.249445 -0.00587073 0.0
0.248624 -0.0059192 0.0
0.222737 -0.00444755 0.0
0.203894 -0.00391109 0.0
0.236512 -0.00500264 0.0
0.203314 -0.00417851 0.0
0.179746 -0.00339053 0.0
0.243004 -0.00643086 0.0
0.232386 -0.00611013 0.0
0 0 0.0
9.0291e-05 -4.1365e-05 0.0
0 0 0.0
-0.000226282 0.000977414 0.0
0.216708 -0.00556123 0.0
0.195669 -0.00464204 0.0
0.0541195 -0.000449226 0.0
0.13771 -0.00261294 0.0
0.0997057 -0.00147946 0.0
0.169724 -0.00382892 0.0
0 0 0.0
0 0 0.0
0 0 0.0
-0.000154608 0.000407065 0.0
1.55114e-05 -0.000170012 0.0
0.000106849 -0.000123098 0.0
0 0 0.0
0.0418891 -0.000283816 0.0
0.118521 -0.001739 0.0
0.151191 -0.00261862 0.0
0.0816624 -0.000941116 0.0
0.245313 -0.0056564 0.0
0.24926 -0.00645872 0.0
0.248623 -0.00654569 0.0
0.222268 -0.00476279 0.0
0.236151 -0.00537477 0.0
0.202676 -0.00444761 0.0
0.178701 -0.00369621 0.0
0.243186 -0.0071494 0.0
0.235837 -0.00688349 0.0
0.225631 -0.00647421 0.0
0 0 0.0
0.000185708 -3.13167e-05 0.0
0 0 0.0
0 0 0.0
-0.000836846 0.00251717 0.0
-0.000738891 0.0014661 0.0
0.212543 -0.00595955 0.0
0.196534 -0.00527603 0.0
0.100827 -0.00171208 0.0
0.0549595 -0.00053778 0.0
0.138949 -0.00303398 0.0
0.170826 -0.00440159 0.0
0 0 0.0
-0.000185902 4.53671e-05 0.0
-0.000448417 0.000584898 0.0
-4.24598e-05 -8.26985e-05 0.0
6.76636e-05 3.80457e-06 0.0
0 0 0.0
0.04136 -0.000301539 0.0
0.117651 -0.0018454 0.0
0.150303 -0.00278431 0.0
0.080875 -0.000997326 0.0
0.244959 -0.00619139 0.0
0.249027 -0.00709522 0.0
0.248583 -0.0072334 0.0
0.221396 -0.0053127 0.0
0.235739 -0.00575162 0.0
0.201847 -0.00478286 0.0
0.149337 -0.00296028 0.0
0.177768 -0.00395126 0.0
0.243309 -0.00777208 0.0
0.233049 -0.00736827 0.0
0.217815 -0.006841 0.0
0 0 0.0
0.000146631 3.89345e-05 0.0
0 0 0.0
0 0 0.0
0 0 0.0
0 0 0.0
-0.00126794 0.00160066 0.0
-0.000259605 0.00232769 0.0
-0.000902149 0.00347218 0.0
-0.00205017 0.00467392 0.0
-0.0016206 0.00296768 0.0
0 0 0.0
-9.90644e-05 0.00414539 0.0
0.197692 -0.00623816 0.0
0.171785 -0.00495928 0.0
0 0 0.0
0.0560615 -0.000666739 0.0
0.102258 -0.00204578 0.0
0.140571 -0.00368223 0.0
0 0 0.0
0 0 0.0
-0.00065044 0.000609322 0.0
-0.000375775 0.000299103 0.0