# vtk DataFile Version 3.0
Mesh NS-CD Problem
ASCII
DATASET UNSTRUCTURED_GRID
POINTS 10839 float
-2 0.3 0.0
-2 0.4 0.0
-2 0.35 0.0
-2 0.45 0.0
-2 0.5 0.0
-2 0.55 0.0
-2 0 0.0
-2 0.05 0.0
-2 0.85 0.0
-2 0.9 0.0
-2 0.1 0.0
-2 0.15 0.0
-2 0.25 0.0
-2 0.2 0.0
-1.96653 0.266667 0.0
-1.96524 0.415385 0.0
-1.96485 0.315 0.0
-1.96348 0.363636 0.0
-1.96414 0.464286 0.0
-2 0.6 0.0
-1.96538 0.584615 0.0
-1.96538 0.538462 0.0
-1.94979 0 0.0
-1.96653 0.0666666 0.0
-1.93306 0.0333333 0.0
-2 0.8 0.0
-2 0.75 0.0
-2 0.7 0.0
-2 0.65 0.0
-1.96249 0.7375 0.0
-1.96666 0.833333 0.0
-2 1 0.0
-2 0.95 0.0
-1.96249 0.8875 0.0
-1.96666 0.933333 0.0
-1.96234 0.1125 0.0
-1.96653 0.166667 0.0
-1.93724 0.225 0.0
-1.92971 0.28 0.0
-1.93048 0.380769 0.0
-1.93048 0.423077 0.0
-1.89958 0.3375 0.0
-1.9292 0.484203 0.0
-1.92117 0.530907 0.0
-1.96363 0.636364 0.0
-1.93076 0.576923 0.0
-1.89958 0 0.0
-1.88703 0.0375 0.0
-1.90963 0.08 0.0
-1.86611 0.0666666 0.0
-1.93749 0.775 0.0
-1.93635 0.672727 0.0
-1.92999 0.72 0.0
-1.93332 0.866667 0.0
-1.92856 0.821429 0.0
-1.94999 1 0.0
-1.92499 0.9625 0.0
-1.92499 0.925 0.0
-1.89998 0.9 0.0
-1.89958 0.125 0.0
-1.92827 0.178571 0.0
-1.89958 0.233333 0.0
-1.89045 0.290909 0.0
-1.86096 0.311538 0.0
-1.89241 0.392857 0.0
-1.89334 0.448489 0.0
-1.85655 0.357143 0.0
-1.89614 0.653846 0.0
-1.89427 0.504121 0.0
-1.8952 0.559753 0.0
-1.89614 0.615385 0.0
-1.84937 0 0.0
-1.83264 0.0333333 0.0
-1.85655 0.107143 0.0
-1.81172 0.075 0.0
-1.89998 0.766667 0.0
-1.89089 0.709091 0.0
-1.87498 0.85 0.0
-1.85998 0.79 0.0
-1.88748 0.8125 0.0
-1.89998 1 0.0
-1.88748 0.9625 0.0
-1.86664 0.933333 0.0
-1.85712 0.892857 0.0
-1.87448 0.15 0.0
-1.86611 0.194444 0.0
-1.83264 0.133333 0.0
-1.83264 0.2625 0.0
-1.82068 0.321429 0.0
-1.85664 0.404762 0.0
-1.85674 0.452381 0.0
-1.85683 0.5 0.0
-1.81184 0.375 0.0
-1.85712 0.642857 0.0
-1.85693 0.547619 0.0
-1.85702 0.595238 0.0
-1.79917 0 0.0
-1.78482 0.0357143 0.0
-1.79917 0.116667 0.0
-1.76569 0.0666666 0.0
-1.85452 0.745455 0.0
-1.82689 0.692308 0.0
-1.81815 0.781818 0.0
-1.82497 0.825 0.0
-1.84997 1 0.0
-1.8333 0.958333 0.0
-1.81247 0.8875 0.0
-1.81247 0.925 0.0
-1.81742 0.218182 0.0
-1.82427 0.175 0.0
-1.77634 0.145455 0.0
-1.79144 0.242308 0.0
-1.78482 0.285714 0.0
-1.77469 0.332653 0.0
-1.81215 0.529762 0.0
-1.81194 0.422619 0.0
-1.81203 0.470238 0.0
-1.76714 0.392857 0.0
-1.81234 0.625 0.0
-1.79732 0.571429 0.0
-1.74896 0 0.0
-1.73222 0.0333333 0.0
-1.75398 0.105 0.0
-1.71883 0.07 0.0
-1.79227 0.730769 0.0
-1.78007 0.679121 0.0
-1.75765 0.769231 0.0
-1.78178 0.818182 0.0
-1.78996 0.86 0.0
-1.79996 1 0.0
-1.78568 0.964286 0.0
-1.76663 0.922222 0.0
-1.76569 0.1875 0.0
-1.73222 0.15 0.0
-1.74896 0.25 0.0
-1.73714 0.304762 0.0
-1.76743 0.537202 0.0
-1.72869 0.343878 0.0
-1.76732 0.485119 0.0
-1.76723 0.440476 0.0
-1.72243 0.410714 0.0
-1.76757 0.607143 0.0
-1.69875 0 0.0
-1.68369 0.035 0.0
-1.69875 0.1125 0.0
-1.66528 0.075 0.0
-1.74341 0.708974 0.0
-1.73324 0.665934 0.0
-1.70441 0.74478 0.0
-1.71423 0.785714 0.0
-1.72303 0.826923 0.0
-1.74541 0.854545 0.0
-1.74541 0.890909 0.0
-1.74996 1 0.0
-1.73745 0.9625 0.0
-1.71359 0.927273 0.0
-1.68716 0.153846 0.0
-1.7131 0.214286 0.0
-1.70725 0.275 0.0
-1.69712 0.321939 0.0
-1.72279 0.589286 0.0
-1.72261 0.5 0.0
-1.7227 0.544643 0.0
-1.6827 0.355102 0.0
-1.67773 0.428571 0.0
-1.70763 0.464286 0.0
-1.70369 0.62449 0.0
-1.64854 0 0.0
-1.63181 0.0375 0.0
-1.64137 0.142857 0.0
-1.61764 0.0769231 0.0
-1.69458 0.703846 0.0
-1.67471 0.657437 0.0
-1.66143 0.727637 0.0
-1.67125 0.768571 0.0
-1.67851 0.821429 0.0
-1.68841 0.861538 0.0
-1.70904 0.890909 0.0
-1.69995 1 0.0
-1.68176 0.963636 0.0
-1.67267 0.927273 0.0
-1.65427 0.187143 0.0
-1.66718 0.231429 0.0
-1.66554 0.3 0.0
-1.67802 0.571429 0.0
-1.67792 0.523809 0.0
-1.6367 0.366327 0.0
-1.63682 0.423469 0.0
-1.62568 0.502976 0.0
-1.6629 0.470238 0.0
-1.65254 0.618367 0.0
-1.6059 0.307143 0.0
-1.59833 0 0.0
-1.58288 0.0384615 0.0
-1.60563 0.169643 0.0
-1.58179 0.112271 0.0
-1.56964 0.0714286 0.0
-1.64574 0.690385 0.0
-1.62827 0.751429 0.0
-1.63371 0.791071 0.0
-1.64279 0.857143 0.0
-1.65378 0.896154 0.0
-1.64994 1 0.0
-1.6363 0.963636 0.0
-1.61916 0.930769 0.0
-1.61345 0.209107 0.0
-1.62126 0.248571 0.0
-1.56989 0.196429 0.0
-1.63324 0.553571 0.0
-1.58846 0.535714 0.0
-1.59408 0.361905 0.0
-1.59161 0.402211 0.0
-1.58832 0.464286 0.0
-1.61504 0.598581 0.0
-1.59683 0.64359 0.0
-1.57899 0.274107 0.0
-1.56176 0.322381 0.0
-1.54812 0 0.0
-1.53378 0.0357143 0.0
-1.54593 0.147619 0.0
-1.53385 0.0732143 0.0
-1.53393 0.110714 0.0
-1.58522 0.704286 0.0
-1.58709 0.745 0.0
-1.58896 0.785714 0.0
-1.60695 0.830357 0.0
-1.60707 0.892857 0.0
-1.59993 1 0.0
-1.58454 0.965385 0.0
-1.57135 0.928571 0.0
-1.55209 0.241071 0.0
-1.5291 0.198214 0.0
-1.56936 0.570918 0.0
-1.54369 0.517857 0.0
-1.5464 0.380952 0.0
-1.54564 0.427721 0.0
-1.54488 0.47449 0.0
-1.55026 0.606122 0.0
-1.54222 0.677143 0.0
-1.52943 0.282857 0.0
-1.52143 0.33619 0.0
-1.49792 0 0.0
-1.49802 0.05 0.0
-1.49822 0.15 0.0
-1.49312 0.1 0.0
-1.5423 0.717143 0.0
-1.54419 0.767857 0.0
-1.54727 0.819048 0.0
-1.57122 0.861905 0.0
-1.53553 0.914286 0.0
-1.54992 1 0.0
-1.53563 0.964286 0.0
-1.49842 0.25 0.0
-1.48831 0.2 0.0
-1.5214 0.558929 0.0
-1.49891 0.5 0.0
-1.49871 0.4 0.0
-1.47631 0.45 0.0
-1.49911 0.6 0.0
-1.49921 0.65 0.0
-1.49931 0.7 0.0
-1.48111 0.35 0.0
-1.48351 0.3 0.0
-1.44771 0 0.0
-1.44782 0.05 0.0
-1.44804 0.15 0.0
-1.44793 0.1 0.0
-1.49941 0.75 0.0
-1.49951 0.8 0.0
-1.49981 0.95 0.0
-1.49961 0.85 0.0
-1.49971 0.9 0.0
-1.49991 1 0.0
-1.44826 0.25 0.0
-1.43815 0.2 0.0
-1.47151 0.55 0.0
-1.44881 0.5 0.0
-1.44859 0.4 0.0
-1.42619 0.45 0.0
-1.44913 0.65 0.0
-1.44902 0.6 0.0
-1.44935 0.75 0.0
-1.44924 0.7 0.0
-1.43972 0.35 0.0
-1.43336 0.3 0.0
-1.3975 0 0.0
-1.39762 0.05 0.0
-1.39786 0.15 0.0
-1.39274 0.1 0.0
-1.44957 0.85 0.0
-1.44946 0.8 0.0
-1.4523 0.95 0.0
-1.44968 0.9 0.0
-1.4499 1 0.0
-1.3981 0.25 0.0
-1.38798 0.2 0.0
-1.42141 0.55 0.0
-1.3987 0.5 0.0
-1.39834 0.35 0.0
-1.37845 0.4 0.0
-1.37607 0.45 0.0
-1.40784 0.65 0.0
-1.39894 0.6 0.0
-1.41185 0.75 0.0
-1.39918 0.7 0.0
-1.38322 0.3 0.0
-1.34729 0 0.0
-1.34492 0.05 0.0
-1.34018 0.15 0.0
-1.34255 0.1 0.0
-1.40707 0.85 0.0
-1.39941 0.8 0.0
-1.39977 0.95 0.0
-1.39965 0.9 0.0
-1.39989 1 0.0
-1.33781 0.2 0.0
-1.33544 0.25 0.0
-1.37131 0.55 0.0
-1.34859 0.5 0.0
-1.33833 0.4 0.0
-1.3307 0.35 0.0
-1.32595 0.45 0.0
-1.34885 0.6 0.0
-1.36655 0.65 0.0
-1.36179 0.75 0.0
-1.34911 0.7 0.0
-1.33307 0.3 0.0
-1.29708 0 0.0
-1.29722 0.05 0.0
-1.2975 0.15 0.0
-1.29236 0.1 0.0
-1.35703 0.85 0.0
-1.34937 0.8 0.0
-1.34988 1 0.0
-1.34962 0.9 0.0
-1.35226 0.95 0.0
-1.28528 0.25 0.0
-1.28764 0.2 0.0
-1.28931 0.35 0.0
-1.32121 0.55 0.0
-1.29848 0.5 0.0
-1.28709 0.45 0.0
-1.2982 0.4 0.0
-1.29876 0.6 0.0
-1.31647 0.65 0.0
-1.29918 0.75 0.0
-1.29904 0.7 0.0
-1.28292 0.3 0.0
-1.24687 0 0.0
-1.24702 0.05 0.0
-1.24717 0.1 0.0
-1.24732 0.15 0.0
-1.29946 0.85 0.0
-1.29932 0.8 0.0
-1.29987 1 0.0
-1.29974 0.95 0.0
-1.30462 0.9 0.0
-1.24762 0.25 0.0
-1.23747 0.2 0.0
-1.24792 0.35 0.0
-1.22807 0.4 0.0
-1.27111 0.55 0.0
-1.24837 0.5 0.0
-1.24822 0.45 0.0
-1.24867 0.6 0.0
-1.26639 0.65 0.0
-1.26167 0.75 0.0
-1.24897 0.7 0.0
-1.23277 0.3 0.0
-1.19667 0 0.0
-1.19683 0.05 0.0
-1.18964 0.15 0.0
-1.19198 0.1 0.0
-1.25695 0.85 0.0
-1.24927 0.8 0.0
-1.25223 0.95 0.0
-1.24987 1 0.0
-1.24957 0.9 0.0
-1.1873 0.2 0.0
-1.18496 0.25 0.0
-1.18028 0.35 0.0
-1.17794 0.4 0.0
-1.1981 0.45 0.0
-1.19842 0.55 0.0
-1.19826 0.5 0.0
-1.19858 0.6 0.0
-1.19874 0.65 0.0
-1.19906 0.75 0.0
-1.1989 0.7 0.0
-1.18262 0.3 0.0
-1.14646 0 0.0
-1.14663 0.05 0.0
-1.1418 0.1 0.0
-1.13713 0.2 0.0
-1.14697 0.15 0.0
-1.20691 0.85 0.0
-1.20926 0.8 0.0
-1.20221 0.95 0.0
-1.19986 1 0.0
-1.20456 0.9 0.0
-1.13997 0.3 0.0
-1.14731 0.25 0.0
-1.13781 0.4 0.0
-1.13014 0.35 0.0
-1.12548 0.45 0.0
-1.14815 0.5 0.0
-1.15962 0.55 0.0
-1.14849 0.6 0.0
-1.15745 0.65 0.0
-1.16155 0.75 0.0
-1.14917 0.8 0.0
-1.14883 0.7 0.0
-1.09625 0 0.0
-1.09661 0.1 0.0
-1.09393 0.05 0.0
-1.09697 0.2 0.0
-1.08929 0.15 0.0
-1.15687 0.85 0.0
-1.14985 1 0.0
-1.15219 0.95 0.0
-1.14951 0.9 0.0
-1.09733 0.3 0.0
-1.08465 0.25 0.0
-1.09769 0.4 0.0
-1.08 0.35 0.0
-1.08661 0.45 0.0
-1.09804 0.5 0.0
-1.12082 0.55 0.0
-1.10916 0.8 0.0
-1.10629 0.7 0.0
-1.0984 0.6 0.0
-1.11616 0.65 0.0
-1.11149 0.75 0.0
-1.04604 0 0.0
-1.04623 0.05 0.0
-1.04642 0.1 0.0
-1.0468 0.2 0.0
-1.03911 0.15 0.0
-1.09948 0.9 0.0
-1.0993 0.85 0.0
-1.09984 1 0.0
-1.09966 0.95 0.0
-1.04718 0.3 0.0
-1.03449 0.25 0.0
-1.04756 0.4 0.0
-1.02986 0.35 0.0
-1.04775 0.45 0.0
-1.04794 0.5 0.0
-1.04813 0.55 0.0
-1.05911 0.8 0.0
-1.04831 0.6 0.0
-1.06376 0.7 0.0
-1.0485 0.65 0.0
-1.04888 0.75 0.0
-0.995833 0 0.0
-0.991231 0.1 0.0
-0.996033 0.05 0.0
-0.986629 0.2 0.0
-0.98893 0.15 0.0
-1.05447 0.9 0.0
-1.04926 0.85 0.0
-1.04983 1 0.0
-1.04964 0.95 0.0
-0.984328 0.25 0.0
-0.99703 0.3 0.0
-0.997429 0.4 0.0
-0.997628 0.45 0.0
-0.979726 0.35 0.0
-0.997827 0.5 0.0
-0.998027 0.55 0.0
-0.998226 0.6 0.0
-0.961416 0.475 0.0
-1.00907 0.8 0.0
-0.998426 0.65 0.0
-0.998625 0.7 0.0
-1.01138 0.75 0.0
-0.945625 0 0.0
-0.946044 0.1 0.0
-0.943334 0.05 0.0
-0.946463 0.2 0.0
-0.938752 0.15 0.0
-1.00444 0.9 0.0
-1.00675 0.85 0.0
-0.999821 1 0.0
-1.00213 0.95 0.0
-0.93417 0.25 0.0
-0.946881 0.3 0.0
-0.9473 0.4 0.0
-0.929588 0.35 0.0
-0.925005 0.45 0.0
-0.960371 0.525 0.0
-0.959325 0.575 0.0
-0.958279 0.625 0.0
-0.922714 0.5 0.0
-0.959017 0.8 0.0
-0.957233 0.675 0.0
-0.952999 0.7125 0.0
-0.948766 0.75 0.0
-0.895417 0 0.0
-0.895855 0.1 0.0
-0.893136 0.05 0.0
-0.896294 0.2 0.0
-0.888573 0.15 0.0
-0.949184 0.85 0.0
-0.954415 0.9 0.0
-0.949812 1 0.0
-0.949603 0.95 0.0
-0.884011 0.25 0.0
-0.896733 0.3 0.0
-0.874887 0.45 0.0
-0.879449 0.35 0.0
-0.897171 0.4 0.0
-0.920423 0.55 0.0
-0.918132 0.6 0.0
-0.915841 0.65 0.0
-0.872606 0.5 0.0
-0.908968 0.8 0.0
-0.91355 0.7 0.0
-0.898707 0.75 0.0
-0.845208 0 0.0
-0.845438 0.05 0.0
-0.845667 0.1 0.0
-0.845896 0.15 0.0
-0.833853 0.25 0.0
-0.846126 0.2 0.0
-0.899146 0.85 0.0
-0.904386 0.9 0.0
-0.899584 0.95 0.0
-0.899804 1 0.0
-0.838062 0.35 0.0
[...]
POINT_DATA 10839
VECTORS Velocity float
0.21 0 0.0
0.24 0 0.0
0.2275 0 0.0
0.2475 0 0.0
0.25 0 0.0
0.2475 0 0.0
0 0 0.0
0.0475 0 0.0
0.1275 0 0.0
0.09 0 0.0
0.09 0 0.0
0.1275 0 0.0
0.1875 0 0.0
0.16 0 0.0
0.195557 -2.33711e-05 0.0
0.242841 -3.17131e-05 0.0
0.215776 -2.77528e-05 0.0
0.231406 -3.12324e-05 0.0
0.248725 -3.37325e-05 0.0
0.24 0 0.0
0.24284 -3.16076e-05 0.0
0.24852 -3.24768e-05 0.0
0 0 0.0
0.0622239 -4.17072e-06 0.0
0.0322269 -2.75708e-06 0.0
0.16 0 0.0
0.1875 0 0.0
0.21 0 0.0
0.2275 0 0.0
0.193592 -2.61798e-05 0.0
0.138887 -1.4661e-05 0.0
0 0 0.0
0.0475 0 0.0
0.0998415 -1.02565e-05 0.0
0.0622206 -4.22085e-06 0.0
0.0998461 -1.0714e-05 0.0
0.138891 -1.4801e-05 0.0
0.17438 -3.68196e-05 0.0
0.201605 -5.02614e-05 0.0
0.235787 -6.11623e-05 0.0
0.244085 -6.39368e-05 0.0
0.223601 -8.18833e-05 0.0
0.249751 -6.67342e-05 0.0
0.249044 -7.42867e-05 0.0
0.231404 -3.16823e-05 0.0
0.244081 -6.31132e-05 0.0
0 0 0.0
0.0361079 -5.28336e-06 0.0
0.0736124 -1.47053e-05 0.0
0.0622485 -1.6059e-05 0.0
0.17437 -3.62229e-05 0.0
0.220162 -5.00907e-05 0.0
0.201595 -5.0227e-05 0.0
0.115549 -2.18977e-05 0.0
0.146676 -3.37346e-05 0.0
0 0 0.0
0.0360875 -3.58724e-06 0.0
0.0693662 -1.15499e-05 0.0
0.0899839 -2.27389e-05 0.0
0.109391 -3.06624e-05 0.0
0.146691 -3.31227e-05 0.0
0.178901 -6.14922e-05 0.0
0.206293 -8.01533e-05 0.0
0.2145 -0.000107685 0.0
0.238526 -9.55602e-05 0.0
0.24735 -9.94082e-05 0.0
0.229606 -0.000121399 0.0
0.226324 -8.57992e-05 0.0
0.249983 -9.98351e-05 0.0
0.246427 -9.71123e-05 0.0
0.23668 -9.14703e-05 0.0
0 0 0.0
0.0322501 -5.94365e-06 0.0
0.0956956 -3.47091e-05 0.0
0.0694277 -2.61222e-05 0.0
0.178877 -6.04244e-05 0.0
0.206269 -8.05469e-05 0.0
0.127477 -4.6731e-05 0.0
0.165874 -7.62443e-05 0.0
0.152326 -5.48509e-05 0.0
0 0 0.0
0.0360797 -5.12603e-06 0.0
0.0621964 -1.59123e-05 0.0
0.095631 -3.5375e-05 0.0
0.127524 -4.72385e-05 0.0
0.15666 -6.83959e-05 0.0
0.115599 -5.40713e-05 0.0
0.193625 -0.000112168 0.0
0.21814 -0.000141594 0.0
0.240939 -0.000129211 0.0
0.247737 -0.000133885 0.0
0.25 -0.000135256 0.0
0.234397 -0.000163602 0.0
0.229577 -0.000119408 0.0
0.247728 -0.000133451 0.0
0.24092 -0.000128729 0.0
0 0 0.0
0.0344861 -8.19116e-06 0.0
0.103119 -5.30125e-05 0.0
0.0623005 -2.64108e-05 0.0
0.189728 -9.52371e-05 0.0
0.21299 -0.000132445 0.0
0.170536 -0.000102924 0.0
0.144332 -7.6611e-05 0.0
0 0 0.0
0.0398987 -8.76659e-06 0.0
0.0997884 -4.82648e-05 0.0
0.0693228 -2.57351e-05 0.0
0.170622 -0.000103388 0.0
0.144419 -7.84841e-05 0.0
0.124374 -7.93734e-05 0.0
0.183647 -0.000130342 0.0
0.204129 -0.000155796 0.0
0.222036 -0.00018311 0.0
0.249109 -0.000176903 0.0
0.244026 -0.000172487 0.0
0.249119 -0.000177058 0.0
0.238549 -0.000207584 0.0
0.234354 -0.000162131 0.0
0.244883 -0.000186184 0.0
0 0 0.0
0.0322901 -8.65325e-06 0.0
0.0940704 -5.56035e-05 0.0
0.0652131 -3.32988e-05 0.0
0.196699 -0.000141779 0.0
0.217874 -0.000173799 0.0
0.177442 -0.000143607 0.0
0.148693 -0.000100709 0.0
0.120332 -7.07991e-05 0.0
0 0 0.0
0.0343918 -8.30941e-06 0.0
0.0716472 -3.35098e-05 0.0
0.152421 -0.000113191 0.0
0.127609 -9.82518e-05 0.0
0.187574 -0.000161143 0.0
0.211947 -0.000200345 0.0
0.248606 -0.000218812 0.0
0.225682 -0.000226674 0.0
0.249782 -0.000220605 0.0
0.246473 -0.000217097 0.0
0.242062 -0.000253534 0.0
0.238491 -0.000206263 0.0
0 0 0.0
0.0338713 -1.08197e-05 0.0
0.0999867 -7.39713e-05 0.0
0.0695383 -4.42368e-05 0.0
0.206264 -0.000186544 0.0
0.222408 -0.000217146 0.0
0.189981 -0.000193293 0.0
0.16826 -0.000156517 0.0
0.14301 -0.000120465 0.0
0.124199 -8.92976e-05 0.0
0.0970886 -6.02397e-05 0.0
0 0 0.0
0.0360227 -1.05415e-05 0.0
0.0673195 -3.58245e-05 0.0
0.130327 -0.000118423 0.0
0.168477 -0.00015827 0.0
0.199468 -0.00020617 0.0
0.218374 -0.000241591 0.0
0.241994 -0.000253124 0.0
0.249999 -0.000264667 0.0
0.247989 -0.000261327 0.0
0.229077 -0.000272192 0.0
0.244935 -0.000301019 0.0
0.248739 -0.000277725 0.0
0.234448 -0.00025882 0.0
0 0 0.0
0.036228 -1.39293e-05 0.0
0.122649 -0.000121097 0.0
0.0712198 -5.22369e-05 0.0
0.208355 -0.000227107 0.0
0.225131 -0.00026971 0.0
0.198056 -0.000235152 0.0
0.177734 -0.000195175 0.0
0.146534 -0.000144477 0.0
0.11914 -0.000101426 0.0
0.0970575 -6.81498e-05 0.0
0 0 0.0
0.0349416 -1.17777e-05 0.0
0.0672841 -4.02351e-05 0.0
0.152292 -0.000165095 0.0
0.17801 -0.000201558 0.0
0.21011 -0.000254617 0.0
0.24486 -0.0002996 0.0
0.24942 -0.000308193 0.0
0.232219 -0.00031948 0.0
0.244193 -0.000341916 0.0
0.249987 -0.000363438 0.0
0.24913 -0.00032412 0.0
0.235916 -0.000308629 0.0
0.212954 -0.000310375 0.0
0 0 0.0
0.0371551 -1.63897e-05 0.0
0.141098 -0.000168244 0.0
0.0999437 -0.000101965 0.0
0.0665878 -5.08605e-05 0.0
0.213636 -0.000275032 0.0
0.186618 -0.000239358 0.0
0.165096 -0.000195241 0.0
0.122252 -0.000121159 0.0
0.0928754 -7.45415e-05 0.0
0 0 0.0
0.034913 -1.31198e-05 0.0
0.0642354 -4.2665e-05 0.0
0.165586 -0.000210711 0.0
0.186958 -0.000247562 0.0
0.15811 -0.000220252 0.0
0.247092 -0.000349134 0.0
0.248691 -0.000400374 0.0
0.231044 -0.000358522 0.0
0.240519 -0.000381922 0.0
0.248753 -0.000401549 0.0
0.240206 -0.000354107 0.0
0.229263 -0.000346905 0.0
0.199171 -0.00030397 0.0
0.218623 -0.000362862 0.0
0 0 0.0
0.0346416 -1.60396e-05 0.0
0.126153 -0.000163252 0.0
0.0681637 -5.72821e-05 0.0
0.0988018 -0.000110726 0.0
0.208094 -0.000312726 0.0
0.189773 -0.000273066 0.0
0.168141 -0.000227215 0.0
0.140634 -0.00016552 0.0
0.0954219 -8.84189e-05 0.0
0 0 0.0
0.0332582 -1.3408e-05 0.0
0.066068 -5.07558e-05 0.0
0.183209 -0.000287196 0.0
0.159246 -0.000246341 0.0
0.2449 -0.000411407 0.0
0.249658 -0.000452285 0.0
0.235951 -0.000418952 0.0
0.24485 -0.00044154 0.0
0.249373 -0.000452797 0.0
0.238625 -0.000415139 0.0
0.218432 -0.000374254 0.0
0.20309 -0.000354653 0.0
0.223358 -0.000414907 0.0
0 0 0.0
0.0477933 -3.17068e-05 0.0
0.1279 -0.000185615 0.0
0.0904029 -0.000103595 0.0
0.202623 -0.000334774 0.0
0.177985 -0.000276147 0.0
0.147908 -0.000208489 0.0
0.118737 -0.0001377 0.0
0.078044 -7.46521e-05 0.0
0 0 0.0
0.0342382 -1.58229e-05 0.0
0.187815 -0.000340286 0.0
0.160381 -0.000274025 0.0
0.246452 -0.000468664 0.0
0.249994 -0.000506849 0.0
0.240128 -0.000483228 0.0
0.247566 -0.000530179 0.0
0.239865 -0.000474042 0.0
0.227304 -0.000437847 0.0
0.209747 -0.000389464 0.0
0.227709 -0.000471255 0.0
0.210273 -0.000416922 0.0
0 0 0.0
0.0478528 -3.48635e-05 0.0
0.12799 -0.000206246 0.0
0.0904802 -0.000112855 0.0
0.187193 -0.000330589 0.0
0.159644 -0.00026076 0.0
0.0472099 -3.16488e-05 0.0
0.12711 -0.000182206 0.0
0.0896116 -0.000102439 0.0
0 0 0.0
0.187887 -0.000383232 0.0
0.160468 -0.000306725 0.0
0.247419 -0.000530038 0.0
0.24999 -0.000570006 0.0
0.240156 -0.000545692 0.0
0.247578 -0.000596437 0.0
0.22726 -0.000489732 0.0
0.239833 -0.000530878 0.0
0.187125 -0.000369356 0.0
0.20969 -0.000435283 0.0
0.227746 -0.000518629 0.0
0.210335 -0.000470524 0.0
0 0 0.0
0.047917 -3.70805e-05 0.0
0.128092 -0.00022779 0.0
0.0905844 -0.00012407 0.0
0.127024 -0.000204984 0.0
0.159566 -0.000291948 0.0
0.0471526 -3.57159e-05 0.0
0.0895276 -0.00011502 0.0
0 0 0.0
0.187971 -0.000429896 0.0
0.160567 -0.000342321 0.0
0.247399 -0.00059248 0.0
0.249985 -0.000637607 0.0
0.227786 -0.000571364 0.0
0.240199 -0.000641674 0.0
0.24759 -0.000668865 0.0
0.227217 -0.000532693 0.0
0.239796 -0.00059083 0.0
0.187068 -0.000398637 0.0
0.209626 -0.000482939 0.0
0.210405 -0.000529536 0.0
0 0 0.0
0.0479905 -3.93724e-05 0.0
0.128226 -0.000253826 0.0
0.0906904 -0.000133503 0.0
0.126944 -0.000225127 0.0
0.159479 -0.000324626 0.0
0.0470815 -4.09575e-05 0.0
0.0894343 -0.00012942 0.0
0 0 0.0
0.16068 -0.000381007 0.0
0.188092 -0.000494978 0.0
0.247375 -0.000658847 0.0
0.249977 -0.000710424 0.0
0.240226 -0.00070477 0.0
0.227862 -0.000668477 0.0
0.247601 -0.000746901 0.0
0.239753 -0.000653085 0.0
0.227172 -0.000578449 0.0
0.186988 -0.000439897 0.0
0.209555 -0.000531527 0.0
0.210484 -0.000596659 0.0
0 0 0.0
0.0480616 -4.12685e-05 0.0
0.128341 -0.000275412 0.0
0.0908073 -0.000143165 0.0
0.126842 -0.000251599 0.0
0.159385 -0.000359643 0.0
0 0 0.0
0.0893296 -0.000147142 0.0
0.0470077 -4.68271e-05 0.0
0.188205 -0.00055894 0.0
0.160811 -0.000425817 0.0
0.227913 -0.000737396 0.0
0.247345 -0.000729911 0.0
0.249964 -0.000789666 0.0
0.247608 -0.000814098 0.0
0.240254 -0.0007727 0.0
0.239703 -0.000718303 0.0
0.22711 -0.000635217 0.0
0.186877 -0.000492248 0.0
0.209477 -0.000581432 0.0
0.210573 -0.000672402 0.0
0 0 0.0
0.0481387 -4.30328e-05 0.0
0.0909241 -0.000152666 0.0
0.128491 -0.000304156 0.0
0.126715 -0.000285176 0.0
0.159285 -0.000396078 0.0
0 0 0.0
0.0469157 -5.43236e-05 0.0
0.0892269 -0.00016462 0.0
0.188302 -0.000612572 0.0
0.160963 -0.000479381 0.0
0.227966 -0.000815063 0.0
0.240302 -0.000909652 0.0
0.247308 -0.000805666 0.0
0.249945 -0.000875175 0.0
0.247614 -0.000886437 0.0
0.239643 -0.00078567 0.0
0.227039 -0.000692751 0.0
0.186805 -0.00052374 0.0
0.209391 -0.000629492 0.0
0.210674 -0.000762091 0.0
0 0 0.0
0.048222 -4.54251e-05 0.0
0.128695 -0.000348366 0.0
0.0910844 -0.000170067 0.0
0.126614 -0.000311514 0.0
0.159178 -0.000432268 0.0
0.0468198 -6.19217e-05 0.0
0 0 0.0
0.0890888 -0.000188178 0.0
0.161139 -0.000546113 0.0
0.188484 -0.000720415 0.0
0.228064 -0.000964534 0.0
0.240336 -0.0010273 0.0
0.247613 -0.000991842 0.0
0.247237 -0.000921337 0.0
0.249917 -0.000970942 0.0
0.239572 -0.000855593 0.0
0.226929 -0.000767392 0.0
0.186681 -0.000570836 0.0
0.209297 -0.000674675 0.0
0.210785 -0.000869474 0.0
0 0 0.0
0.0483121 -4.97836e-05 0.0
0.0912529 -0.000191802 0.0
0.161342 -0.000629247 0.0
0.12887 -0.000391919 0.0
0.126491 -0.000340997 0.0
0.15909 -0.000458788 0.0
0.0467048 -7.09596e-05 0.0
0 0 0.0
0.0889631 -0.000208319 0.0
0.210889 -0.000977512 0.0
0.188611 -0.000803965 0.0
0.240358 -0.00113345 0.0
0.228137 -0.0011057 0.0
0.247598 -0.00116441 0.0
0.249875 -0.00107409 0.0
0.247184 -0.0009881 0.0
0.239486 -0.000924044 0.0
0.226847 -0.000810473 0.0
0.186599 -0.000593873 0.0
0.158956 -0.000490064 0.0
0.209193 -0.000712116 0.0
0 0 0.0
0.0914329 -0.000224448 0.0
0.0484247 -5.72737e-05 0.0
0.161528 -0.000718722 0.0
0.129146 -0.000477772 0.0
0.126362 -0.000364666 0.0
0 0 0.0
0.0465767 -7.95038e-05 0.0
0.0888015 -0.000229096 0.0
0.211002 -0.00110392 0.0
0.188846 -0.000979552 0.0
0.240375 -0.00125141 0.0
0.228212 -0.00127179 0.0
0.24757 -0.0012765 0.0
0.249812 -0.0011892 0.0
0.247122 -0.00105951 0.0
0.158863 -0.000498024 0.0
0.209094 -0.000735373 0.0
0.239377 -0.000990512 0.0
0.226755 -0.000849753 0.0
0.186485 -0.000613361 0.0
0 0 0.0
0.0485469 -6.87074e-05 0.0
0.0916668 -0.000277412 0.0
0.161791 -0.000858929 0.0
0.129433 -0.000583838 0.0
0.0886504 -0.000238639 0.0
0.126213 -0.000376779 0.0
0 0 0.0
0.0464326 -8.54915e-05 0.0
0.211141 -0.00128775 0.0
0.189061 -0.00116144 0.0
0.240383 -0.00142466 0.0
0.22828 -0.00147003 0.0
0.247536 -0.00139947 0.0
0.249728 -0.00131664 0.0
0.246964 -0.00119334 0.0
0.158748 -0.000489949 0.0
0.239244 -0.00105505 0.0
0.208983 -0.000747137 0.0
0.226574 -0.00089894 0.0
0.186333 -0.000611215 0.0
0 0 0.0
0.0919943 -0.00036167 0.0
0.048709 -9.27107e-05 0.0
0.162156 -0.0010865 0.0
0.129774 -0.000729331 0.0
0.0885186 -0.000234645 0.0
0.126087 -0.000368338 0.0
0 0 0.0
0.0462882 -9.07397e-05 0.0
0.189296 -0.00139108 0.0
0.211287 -0.00151442 0.0
0.240374 -0.00163168 0.0
0.247465 -0.00157358 0.0
0.228338 -0.001706 0.0
0.249608 -0.00145531 0.0
0.246809 -0.00129624 0.0
0.239074 -0.00111503 0.0
0.249057 -0.00164978 0.0
0.158626 -0.000452884 0.0
0.226399 -0.000920996 0.0
0.208781 -0.000738454 0.0
0.186226 -0.000588447 0.0
0 0 0.0
0.0923313 -0.000458394 0.0
0.0489329 -0.000121871 0.0
0.162431 -0.00128337 0.0
0.130179 -0.000919571 0.0
0.0883858 -0.000215499 0.0
0.125984 -0.000338269 0.0
0 0 0.0
0.0461576 -8.87542e-05 0.0
0.18955 -0.0016741 0.0
0.211433 -0.00179056 0.0
0.240329 -0.00186559 0.0
0.228379 -0.00199037 0.0
0.247288 -0.00187751 0.0
0.248692 -0.00147842 0.0
0.2434 -0.00126882 0.0
0.233186 -0.00104139 0.0
0.249343 -0.00169621 0.0
0.158505 -0.000378136 0.0
0.218043 -0.000815328 0.0
0.203435 -0.000654935 0.0
0.186034 -0.000509876 0.0
0 0 0.0
0.0927963 -0.000597017 0.0
0.0492128 -0.00016032 0.0
0.162817 -0.00158363 0.0
0.130665 -0.00116113 0.0
0.12587 -0.000257432 0.0
0.0882819 -0.000174833 0.0
0 0 0.0
0.0460338 -7.7268e-05 0.0
0.18982 -0.00202011 0.0
0.211574 -0.00212195 0.0
0.247104 -0.00211685 0.0
0.228392 -0.00232079 0.0
0.240259 -0.00214543 0.0
0.246477 -0.0014644 0.0
0.238702 -0.00119744 0.0
0.226021 -0.000921673 0.0
0.24909 -0.00187825 0.0
0.158375 -0.000263526 0.0
0.208426 -0.000656571 0.0
0.185843 -0.000405789 0.0
0 0 0.0
0.0495649 -0.000207647 0.0
0.0933709 -0.000766306 0.0
0.131157 -0.00140922 0.0
0.190104 -0.0024296 0.0
0.163251 -0.00194563 0.0
0.125793 -0.000146486 0.0
0.0882187 -0.000111743 0.0
0.0459382 -6.11598e-05 0.0
0 0 0.0
0.228379 -0.00263724 0.0
0.211702 -0.00251661 0.0
0.246919 -0.00232926 0.0
0.24013 -0.00246895 0.0
0.225717 -0.000895099 0.0
0.246182 -0.0015772 0.0
0.238388 -0.0012407 0.0
0.248769 -0.00208022 0.0
0.185626 -0.000257378 0.0
0.158221 -6.36909e-05 0.0
0.208068 -0.000537471 0.0
0 0 0.0
0.0500391 -0.000272292 0.0
0.0941758 -0.000980967 0.0
0.131839 -0.00175144 0.0
0.190323 -0.00279045 0.0
0.163852 -0.00247466 0.0
0.12576 2.48691e-06 0.0
0.0882243 -1.15472e-05 0.0
0.0458961 -3.45338e-05 0.0
0 0 0.0
0.12578 0.000190242 0.0
0.228334 -0.00298049 0.0
0.211843 -0.0031307 0.0
0.239861 -0.00300243 0.0
0.246691 -0.00255876 0.0
0.225192 -0.000828488 0.0
0.238 -0.00127539 0.0
0.245809 -0.00170018 0.0
0.248356 -0.00230834 0.0
0.185365 -6.82084e-05 0.0
0.158082 0.000145108 0.0
0.207709 -0.000411742 0.0
0 0 0.0
0.0506297 -0.000337339 0.0
0.0950821 -0.0012127 0.0
0.132642 -0.00213889 0.0
0.19063 -0.00331747 0.0
0.164424 -0.00298128 0.0
0.0458973 -6.05094e-06 0.0
0.0883032 9.37284e-05 0.0
0 0 0.0
0.125834 0.0003729 0.0
0.228234 -0.00346603 0.0
0.211918 -0.00367637 0.0
0.239573 -0.00343866 0.0
0.246317 -0.00289765 0.0
0.224782 -0.000780788 0.0
0.237522 -0.00130808 0.0
0.247851 -0.00256098 0.0
0.245112 -0.00189784 0.0
0.185133 9.73348e-05 0.0
0.157947 0.000388089 0.0
0.207285 -0.000255048 0.0
0 0 0.0
0.0513633 -0.000418775 0.0
0.0961748 -0.00146822 0.0
0.13375 -0.00263824 0.0
0.191032 -0.00407386 0.0
0.211967 -0.00429022 0.0
0.165078 -0.00354692 0.0
0.0459726 3.08739e-05 0.0
0.0884761 0.000214681 0.0
0 0 0.0
0.125967 0.000600695 0.0
0.228011 -0.00420475 0.0
0.239291 -0.00383108 0.0
0.245852 -0.00327457 0.0
0.247394 -0.00277604 0.0
0.224315 -0.000714655 0.0
0.236929 -0.00135108 0.0
0.244486 -0.00205089 0.0
0.157825 0.000660528 0.0
0.184787 0.000339075 0.0
0.206768 -8.07598e-05 0.0
0 0 0.0
0.052284 -0.00051242 0.0
0.0974752 -0.0017498 0.0
0.134895 -0.00311527 0.0
0.191282 -0.00457811 0.0
0.211979 -0.00495675 0.0
0.165827 -0.00416316 0.0
0.0461192 6.59646e-05 0.0
0.0887578 0.000347986 0.0
0 0 0.0
0.157728 0.000888961 0.0
0.0891512 0.000489133 0.0
0.126206 0.000868634 0.0
0.227756 -0.00484611 0.0
0.238942 -0.00424582 0.0
0.244989 -0.00389753 0.0
0.246877 -0.0030024 0.0
0.243929 -0.00219129 0.0
0.223646 -0.000632657 0.0
0.235921 -0.00141269 0.0
0.184282 0.000670287 0.0
0.206256 7.23393e-05 0.0
0.227506 -0.00540055 0.0
0 0 0.0
0.053328 -0.000602414 0.0
0.136238 -0.00362257 0.0
0.0989825 -0.00204928 0.0
0.211966 -0.00569847 0.0
0.191748 -0.00548512 0.0
0.166675 -0.00482153 0.0
0.0463678 0.000115286 0.0
0 0 0.0
0.183925 0.000864737 0.0
0.157628 0.0011725 0.0
0.126519 0.00108652 0.0
0.0466295 0.000152198 0.0
0.0896491 0.000615867 0.0
0.238432 -0.00482141 0.0
0.244416 -0.00427652 0.0
0.246067 -0.00334284 0.0
0.245373 -0.00363108 0.0
0.24328 -0.00233685 0.0
0.222846 -0.000563251 0.0
0.235014 -0.00147831 0.0
0.205672 0.000237669 0.0
0.227189 -0.00599914 0.0
0.0544679 -0.000694813 0.0
0 0 0.0
0.137515 -0.00406969 0.0
0.100708 -0.00235113 0.0
0.211923 -0.00649279 0.0
0.192044 -0.00607026 0.0
0.167653 -0.00552326 0.0
0 0 0.0
0.183437 0.00112977 0.0
0.157534 0.00148348 0.0
0.126837 0.00126681 0.0
0.0469868 0.000179824 0.0
0.0902283 0.000724444 0.0
0.237533 -0.00573252 0.0
0.243784 -0.0046761 0.0
0.244592 -0.00393271 0.0
0.241863 -0.00265523 0.0
0.22193 -0.000494485 0.0
0.233996 -0.00156039 0.0
0.204649 0.000466648 0.0
0.226759 -0.00678926 0.0
0 0 0.0
0.0558616 -0.000789509 0.0
0.139215 -0.0046145 0.0
0.102477 -0.00263545 0.0
0.168755 -0.00625005 0.0
0.211856 -0.00735531 0.0
0.192619 -0.0070984 0.0
0 0 0.0
0 0 0.0
0.182883 0.00135593 0.0
0.157503 0.00170377 0.0
0.1273 0.00143482 0.0
0.090904 0.000804717 0.0
0.0474043 0.00020032 0.0
0.236757 -0.00645289 0.0
0.242832 -0.0052524 0.0
0.233055 -0.00165113 0.0
0.243431 -0.00438437 0.0
0.240672 -0.00293292 0.0
0.220868 -0.000454872 0.0
0.203729 0.000618677 0.0
0.236054 -0.00708638 0.0
0.226237 -0.00764467 0.0
0.0574531 -0.000895488 0.0
0.104664 -0.0029579 0.0
0.141134 -0.00518608 0.0
0.169766 -0.00687176 0.0
0.211784 -0.00827014 0.0
0.192998 -0.00777032 0.0
0 0 0.0
0 0 0.0
0.157486 0.0018462 0.0
0.182166 0.00159286 0.0
0.0915604 0.000852956 0.0
0.127902 0.00156522 0.0
0.0478287 0.00021301 0.0
0.241228 -0.00616345 0.0
0.242094 -0.0048944 0.0
0.20273 0.000735179 0.0
0.232024 -0.00175406 0.0
0.239659 -0.00317893 0.0
0.219233 -0.00044473 0.0
0.235283 -0.00773612 0.0
0.225448 -0.00890632 0.0
0.211693 -0.00925659 0.0
0.0592859 -0.00102418 0.0
0.107095 -0.00330358 0.0
0.143621 -0.00586602 0.0
0.171156 -0.00766318 0.0
0.19374 -0.00893859 0.0
0 0 0.0
0 0 0.0
0.157529 0.00197889 0.0
0.18156 0.00170281 0.0
0.0924241 0.000861369 0.0
0.128507 0.00160661 0.0
0.0483253 0.000218614 0.0
0.238535 -0.0034523 0.0
0.240604 -0.00544846 0.0
0.239916 -0.0068965 0.0
0.201642 0.00080771 0.0
0.230591 -0.0019311 0.0
0.217844 -0.00049982 0.0
0.180961 0.00173966 0.0
0.233742 -0.00900788 0.0
0 0 0.0
0.224747 -0.00994948 0.0
0.194434 -0.0099533 0.0
0.211599 -0.0103077 0.0
0.0611555 -0.00113377 0.0
0.145716 -0.0064065 0.0
0.110068 -0.00371971 0.0
0.173063 -0.00869826 0.0
0 0 0.0
0 0 0.0
0 0 0.0
0 0 0.0
0 0 0.0
0.0487649 0.000206545 0.0
0.129174 0.00156727 0.0
0.157625 0.0019854 0.0
0.093114 0.000825963 0.0
0.236933 -0.0038336 0.0
0.238931 -0.00607389 0.0
0.238471 -0.00769182 0.0
0.216604 -0.000564692 0.0
0.200466 0.000812102 0.0
0.228304 -0.00225165 0.0
0.199428 0.000760473 0.0
0.180503 0.00171017 0.0
0.23247 -0.0100292 0.0
0.223986 -0.0110544 0.0
0 0 0.0
7.25915e-05 -1.71482e-05 0.0
0 0 0.0
-0.000532745 0.00395263 0.0
0.211525 -0.0114486 0.0
0.195032 -0.0107486 0.0
0.0634437 -0.00128076 0.0
0.148356 -0.00707636 0.0
0.113056 -0.00413939 0.0
0.174889 -0.00963327 0.0
0 0 0.0
0 0 0.0
0 0 0.0
-0.000432065 0.00245261 0.0
-0.000115276 8.73993e-05 0.0
-0.000171365 0.000150332 0.0
0 0 0.0
0.0491529 0.000172855 0.0
0.129728 0.00147421 0.0
0.157756 0.0018891 0.0
0.0939119 0.000728894 0.0
0.23516 -0.00428507 0.0
0.23708 -0.00676141 0.0
0.236854 -0.00855437 0.0
0.215291 -0.000682076 0.0
0.226851 -0.00249921 0.0
0.198356 0.000654134 0.0
0.179782 0.00151664 0.0
0.231084 -0.0111201 0.0
0.225581 -0.01194 0.0
0.21784 -0.012381 0.0
0 0 0.0
-6.55086e-05 9.33994e-05 0.0
0 0 0.0
0 0 0.0
-0.00181308 0.0081788 0.0
-0.00191232 0.00583557 0.0
0.207921 -0.0124254 0.0
0.195906 -0.0118952 0.0
0.116001 -0.00456791 0.0
0.0657628 -0.00145348 0.0
0.15126 -0.00783174 0.0
0.176881 -0.0106504 0.0
0 0 0.0
-0.000882219 0.00159356 0.0
-0.00143446 0.00343593 0.0
-0.000730319 0.000844061 0.0
-0.000883198 0.000669691 0.0
0 0 0.0
0.0494901 0.000130262 0.0
0.130385 0.00127227 0.0
0.157925 0.00168744 0.0
0.0945656 0.000583389 0.0
0.233197 -0.00478973 0.0
0.235044 -0.00751197 0.0
0.235066 -0.00949082 0.0
0.212955 -0.000978023 0.0
0.225295 -0.00276958 0.0
0.197074 0.000410521 0.0
0.158168 0.00133732 0.0
0.179269 0.0012082 0.0
0.229871 -0.0120445 0.0
0.222568 -0.0130964 0.0
0.2114 -0.0136237 0.0
0 0 0.0
-0.000773259 0.000307495 0.0
0 0 0.0
0 0 0.0
0 0 0.0
0 0 0.0
-0.00363936 0.00612887 0.0
-0.000444315 0.00662113 0.0
-0.00174208 0.010094 0.0
-0.00418237 0.0129785 0.0
-0.00379112 0.00942998 0.0
0 0 0.0
2.39559e-05 0.00837308 0.0
0.197123 -0.0135038 0.0
0.178643 -0.0115724 0.0
0 0 0.0
0.0686625 -0.00170493 0.0
0.119589 -0.00513135 0.0
0.154959 -0.00890918 0.0
0 0 0.0
0 0 0.0
-0.00248069 0.00335864 0.0
-0.00220148 0.00202433 0.0
-0.00234158 0.00129349 0.0
0 0 0.0
0.049723 6.80951e-05 0.0