# vtk DataFile Version 3.0
Mesh NS-CD Problem
ASCII
DATASET UNSTRUCTURED_GRID
POINTS 10839 float
-2 0.3 0.0
-2 0.4 0.0
-2 0.35 0.0
-2 0.45 0.0
-2 0.5 0.0
-2 0.55 0.0
-2 0 0.0
-2 0.05 0.0
-2 0.85 0.0
-2 0.9 0.0
-2 0.1 0.0
-2 0.15 0.0
-2 0.25 0.0
-2 0.2 0.0
-1.96653 0.266667 0.0
-1.96524 0.415385 0.0
-1.96485 0.315 0.0
-1.96348 0.363636 0.0
-1.96414 0.464286 0.0
-2 0.6 0.0
-1.96538 0.584615 0.0
-1.96538 0.538462 0.0
-1.94979 0 0.0
-1.96653 0.0666666 0.0
-1.93306 0.0333333 0.0
-2 0.8 0.0
-2 0.75 0.0
-2 0.7 0.0
-2 0.65 0.0
-1.96249 0.7375 0.0
-1.96666 0.833333 0.0
-2 1 0.0
-2 0.95 0.0
-1.96249 0.8875 0.0
-1.96666 0.933333 0.0
-1.96234 0.1125 0.0
-1.96653 0.166667 0.0
-1.93724 0.225 0.0
-1.92971 0.28 0.0
-1.93048 0.380769 0.0
-1.93048 0.423077 0.0
-1.89958 0.3375 0.0
-1.9292 0.484203 0.0
-1.92117 0.530907 0.0
-1.96363 0.636364 0.0
-1.93076 0.576923 0.0
-1.89958 0 0.0
-1.88703 0.0375 0.0
-1.90963 0.08 0.0
-1.86611 0.0666666 0.0
-1.93749 0.775 0.0
-1.93635 0.672727 0.0
-1.92999 0.72 0.0
-1.93332 0.866667 0.0
-1.92856 0.821429 0.0
-1.94999 1 0.0
-1.92499 0.9625 0.0
-1.92499 0.925 0.0
-1.89998 0.9 0.0
-1.89958 0.125 0.0
-1.92827 0.178571 0.0
-1.89958 0.233333 0.0
-1.89045 0.290909 0.0
-1.86096 0.311538 0.0
-1.89241 0.392857 0.0
-1.89334 0.448489 0.0
-1.85655 0.357143 0.0
-1.89614 0.653846 0.0
-1.89427 0.504121 0.0
-1.8952 0.559753 0.0
-1.89614 0.615385 0.0
-1.84937 0 0.0
-1.83264 0.0333333 0.0
-1.85655 0.107143 0.0
-1.81172 0.075 0.0
-1.89998 0.766667 0.0
-1.89089 0.709091 0.0
-1.87498 0.85 0.0
-1.85998 0.79 0.0
-1.88748 0.8125 0.0
-1.89998 1 0.0
-1.88748 0.9625 0.0
-1.86664 0.933333 0.0
-1.85712 0.892857 0.0
-1.87448 0.15 0.0
-1.86611 0.194444 0.0
-1.83264 0.133333 0.0
-1.83264 0.2625 0.0
-1.82068 0.321429 0.0
-1.85664 0.404762 0.0
-1.85674 0.452381 0.0
-1.85683 0.5 0.0
-1.81184 0.375 0.0
-1.85712 0.642857 0.0
-1.85693 0.547619 0.0
-1.85702 0.595238 0.0
-1.79917 0 0.0
-1.78482 0.0357143 0.0
-1.79917 0.116667 0.0
-1.76569 0.0666666 0.0
-1.85452 0.745455 0.0
-1.82689 0.692308 0.0
-1.81815 0.781818 0.0
-1.82497 0.825 0.0
-1.84997 1 0.0
-1.8333 0.958333 0.0
-1.81247 0.8875 0.0
-1.81247 0.925 0.0
-1.81742 0.218182 0.0
-1.82427 0.175 0.0
-1.77634 0.145455 0.0
-1.79144 0.242308 0.0
-1.78482 0.285714 0.0
-1.77469 0.332653 0.0
-1.81215 0.529762 0.0
-1.81194 0.422619 0.0
-1.81203 0.470238 0.0
-1.76714 0.392857 0.0
-1.81234 0.625 0.0
-1.79732 0.571429 0.0
-1.74896 0 0.0
-1.73222 0.0333333 0.0
-1.75398 0.105 0.0
-1.71883 0.07 0.0
-1.79227 0.730769 0.0
-1.78007 0.679121 0.0
-1.75765 0.769231 0.0
-1.78178 0.818182 0.0
-1.78996 0.86 0.0
-1.79996 1 0.0
-1.78568 0.964286 0.0
-1.76663 0.922222 0.0
-1.76569 0.1875 0.0
-1.73222 0.15 0.0
-1.74896 0.25 0.0
-1.73714 0.304762 0.0
-1.76743 0.537202 0.0
-1.72869 0.343878 0.0
-1.76732 0.485119 0.0
-1.76723 0.440476 0.0
-1.72243 0.410714 0.0
-1.76757 0.607143 0.0
-1.69875 0 0.0
-1.68369 0.035 0.0
-1.69875 0.1125 0.0
-1.66528 0.075 0.0
-1.74341 0.708974 0.0
-1.73324 0.665934 0.0
-1.70441 0.74478 0.0
-1.71423 0.785714 0.0
-1.72303 0.826923 0.0
-1.74541 0.854545 0.0
-1.74541 0.890909 0.0
-1.74996 1 0.0
-1.73745 0.9625 0.0
-1.71359 0.927273 0.0
-1.68716 0.153846 0.0
-1.7131 0.214286 0.0
-1.70725 0.275 0.0
-1.69712 0.321939 0.0
-1.72279 0.589286 0.0
-1.72261 0.5 0.0
-1.7227 0.544643 0.0
-1.6827 0.355102 0.0
-1.67773 0.428571 0.0
-1.70763 0.464286 0.0
-1.70369 0.62449 0.0
-1.64854 0 0.0
-1.63181 0.0375 0.0
-1.64137 0.142857 0.0
-1.61764 0.0769231 0.0
-1.69458 0.703846 0.0
-1.67471 0.657437 0.0
-1.66143 0.727637 0.0
-1.67125 0.768571 0.0
-1.67851 0.821429 0.0
-1.68841 0.861538 0.0
-1.70904 0.890909 0.0
-1.69995 1 0.0
-1.68176 0.963636 0.0
-1.67267 0.927273 0.0
-1.65427 0.187143 0.0
-1.66718 0.231429 0.0
-1.66554 0.3 0.0
-1.67802 0.571429 0.0
-1.67792 0.523809 0.0
-1.6367 0.366327 0.0
-1.63682 0.423469 0.0
-1.62568 0.502976 0.0
-1.6629 0.470238 0.0
-1.65254 0.618367 0.0
-1.6059 0.307143 0.0
-1.59833 0 0.0
-1.58288 0.0384615 0.0
-1.60563 0.169643 0.0
-1.58179 0.112271 0.0
-1.56964 0.0714286 0.0
-1.64574 0.690385 0.0
-1.62827 0.751429 0.0
-1.63371 0.791071 0.0
-1.64279 0.857143 0.0
-1.65378 0.896154 0.0
-1.64994 1 0.0
-1.6363 0.963636 0.0
-1.61916 0.930769 0.0
-1.61345 0.209107 0.0
-1.62126 0.248571 0.0
-1.56989 0.196429 0.0
-1.63324 0.553571 0.0
-1.58846 0.535714 0.0
-1.59408 0.361905 0.0
-1.59161 0.402211 0.0
-1.58832 0.464286 0.0
-1.61504 0.598581 0.0
-1.59683 0.64359 0.0
-1.57899 0.274107 0.0
-1.56176 0.322381 0.0
-1.54812 0 0.0
-1.53378 0.0357143 0.0
-1.54593 0.147619 0.0
-1.53385 0.0732143 0.0
-1.53393 0.110714 0.0
-1.58522 0.704286 0.0
-1.58709 0.745 0.0
-1.58896 0.785714 0.0
-1.60695 0.830357 0.0
-1.60707 0.892857 0.0
-1.59993 1 0.0
-1.58454 0.965385 0.0
-1.57135 0.928571 0.0
-1.55209 0.241071 0.0
-1.5291 0.198214 0.0
-1.56936 0.570918 0.0
-1.54369 0.517857 0.0
-1.5464 0.380952 0.0
-1.54564 0.427721 0.0
-1.54488 0.47449 0.0
-1.55026 0.606122 0.0
-1.54222 0.677143 0.0
-1.52943 0.282857 0.0
-1.52143 0.33619 0.0
-1.49792 0 0.0
-1.49802 0.05 0.0
-1.49822 0.15 0.0
-1.49312 0.1 0.0
-1.5423 0.717143 0.0
-1.54419 0.767857 0.0
-1.54727 0.819048 0.0
-1.57122 0.861905 0.0
-1.53553 0.914286 0.0
-1.54992 1 0.0
-1.53563 0.964286 0.0
-1.49842 0.25 0.0
-1.48831 0.2 0.0
-1.5214 0.558929 0.0
-1.49891 0.5 0.0
-1.49871 0.4 0.0
-1.47631 0.45 0.0
-1.49911 0.6 0.0
-1.49921 0.65 0.0
-1.49931 0.7 0.0
-1.48111 0.35 0.0
-1.48351 0.3 0.0
-1.44771 0 0.0
-1.44782 0.05 0.0
-1.44804 0.15 0.0
-1.44793 0.1 0.0
-1.49941 0.75 0.0
-1.49951 0.8 0.0
-1.49981 0.95 0.0
-1.49961 0.85 0.0
-1.49971 0.9 0.0
-1.49991 1 0.0
-1.44826 0.25 0.0
-1.43815 0.2 0.0
-1.47151 0.55 0.0
-1.44881 0.5 0.0
-1.44859 0.4 0.0
-1.42619 0.45 0.0
-1.44913 0.65 0.0
-1.44902 0.6 0.0
-1.44935 0.75 0.0
-1.44924 0.7 0.0
-1.43972 0.35 0.0
-1.43336 0.3 0.0
-1.3975 0 0.0
-1.39762 0.05 0.0
-1.39786 0.15 0.0
-1.39274 0.1 0.0
-1.44957 0.85 0.0
-1.44946 0.8 0.0
-1.4523 0.95 0.0
-1.44968 0.9 0.0
-1.4499 1 0.0
-1.3981 0.25 0.0
-1.38798 0.2 0.0
-1.42141 0.55 0.0
-1.3987 0.5 0.0
-1.39834 0.35 0.0
-1.37845 0.4 0.0
-1.37607 0.45 0.0
-1.40784 0.65 0.0
-1.39894 0.6 0.0
-1.41185 0.75 0.0
-1.39918 0.7 0.0
-1.38322 0.3 0.0
-1.34729 0 0.0
-1.34492 0.05 0.0
-1.34018 0.15 0.0
-1.34255 0.1 0.0
-1.40707 0.85 0.0
-1.39941 0.8 0.0
-1.39977 0.95 0.0
-1.39965 0.9 0.0
-1.39989 1 0.0
-1.33781 0.2 0.0
-1.33544 0.25 0.0
-1.37131 0.55 0.0
-1.34859 0.5 0.0
-1.33833 0.4 0.0
-1.3307 0.35 0.0
-1.32595 0.45 0.0
-1.34885 0.6 0.0
-1.36655 0.65 0.0
-1.36179 0.75 0.0
-1.34911 0.7 0.0
-1.33307 0.3 0.0
-1.29708 0 0.0
-1.29722 0.05 0.0
-1.2975 0.15 0.0
-1.29236 0.1 0.0
-1.35703 0.85 0.0
-1.34937 0.8 0.0
-1.34988 1 0.0
-1.34962 0.9 0.0
-1.35226 0.95 0.0
-1.28528 0.25 0.0
-1.28764 0.2 0.0
-1.28931 0.35 0.0
-1.32121 0.55 0.0
-1.29848 0.5 0.0
-1.28709 0.45 0.0
-1.2982 0.4 0.0
-1.29876 0.6 0.0
-1.31647 0.65 0.0
-1.29918 0.75 0.0
-1.29904 0.7 0.0
-1.28292 0.3 0.0
-1.24687 0 0.0
-1.24702 0.05 0.0
-1.24717 0.1 0.0
-1.24732 0.15 0.0
-1.29946 0.85 0.0
-1.29932 0.8 0.0
-1.29987 1 0.0
-1.29974 0.95 0.0
-1.30462 0.9 0.0
-1.24762 0.25 0.0
-1.23747 0.2 0.0
-1.24792 0.35 0.0
-1.22807 0.4 0.0
-1.27111 0.55 0.0
-1.24837 0.5 0.0
-1.24822 0.45 0.0
-1.24867 0.6 0.0
-1.26639 0.65 0.0
-1.26167 0.75 0.0
-1.24897 0.7 0.0
-1.23277 0.3 0.0
-1.19667 0 0.0
-1.19683 0.05 0.0
-1.18964 0.15 0.0
-1.19198 0.1 0.0
-1.25695 0.85 0.0
-1.24927 0.8 0.0
-1.25223 0.95 0.0
-1.24987 1 0.0
-1.24957 0.9 0.0
-1.1873 0.2 0.0
-1.18496 0.25 0.0
-1.18028 0.35 0.0
-1.17794 0.4 0.0
-1.1981 0.45 0.0
-1.19842 0.55 0.0
-1.19826 0.5 0.0
-1.19858 0.6 0.0
-1.19874 0.65 0.0
-1.19906 0.75 0.0
-1.1989 0.7 0.0
-1.18262 0.3 0.0
-1.14646 0 0.0
-1.14663 0.05 0.0
-1.1418 0.1 0.0
-1.13713 0.2 0.0
-1.14697 0.15 0.0
-1.20691 0.85 0.0
-1.20926 0.8 0.0
-1.20221 0.95 0.0
-1.19986 1 0.0
-1.20456 0.9 0.0
-1.13997 0.3 0.0
-1.14731 0.25 0.0
-1.13781 0.4 0.0
-1.13014 0.35 0.0
-1.12548 0.45 0.0
-1.14815 0.5 0.0
-1.15962 0.55 0.0
-1.14849 0.6 0.0
-1.15745 0.65 0.0
-1.16155 0.75 0.0
-1.14917 0.8 0.0
-1.14883 0.7 0.0
-1.09625 0 0.0
-1.09661 0.1 0.0
-1.09393 0.05 0.0
-1.09697 0.2 0.0
-1.08929 0.15 0.0
-1.15687 0.85 0.0
-1.14985 1 0.0
-1.15219 0.95 0.0
-1.14951 0.9 0.0
-1.09733 0.3 0.0
-1.08465 0.25 0.0
-1.09769 0.4 0.0
-1.08 0.35 0.0
-1.08661 0.45 0.0
-1.09804 0.5 0.0
-1.12082 0.55 0.0
-1.10916 0.8 0.0
-1.10629 0.7 0.0
-1.0984 0.6 0.0
-1.11616 0.65 0.0
-1.11149 0.75 0.0
-1.04604 0 0.0
-1.04623 0.05 0.0
-1.04642 0.1 0.0
-1.0468 0.2 0.0
-1.03911 0.15 0.0
-1.09948 0.9 0.0
-1.0993 0.85 0.0
-1.09984 1 0.0
-1.09966 0.95 0.0
-1.04718 0.3 0.0
-1.03449 0.25 0.0
-1.04756 0.4 0.0
-1.02986 0.35 0.0
-1.04775 0.45 0.0
-1.04794 0.5 0.0
-1.04813 0.55 0.0
-1.05911 0.8 0.0
-1.04831 0.6 0.0
-1.06376 0.7 0.0
-1.0485 0.65 0.0
-1.04888 0.75 0.0
-0.995833 0 0.0
-0.991231 0.1 0.0
-0.996033 0.05 0.0
-0.986629 0.2 0.0
-0.98893 0.15 0.0
-1.05447 0.9 0.0
-1.04926 0.85 0.0
-1.04983 1 0.0
-1.04964 0.95 0.0
-0.984328 0.25 0.0
-0.99703 0.3 0.0
-0.997429 0.4 0.0
-0.997628 0.45 0.0
-0.979726 0.35 0.0
-0.997827 0.5 0.0
-0.998027 0.55 0.0
-0.998226 0.6 0.0
-0.961416 0.475 0.0
-1.00907 0.8 0.0
-0.998426 0.65 0.0
-0.998625 0.7 0.0
-1.01138 0.75 0.0
-0.945625 0 0.0
-0.946044 0.1 0.0
-0.943334 0.05 0.0
-0.946463 0.2 0.0
-0.938752 0.15 0.0
-1.00444 0.9 0.0
-1.00675 0.85 0.0
-0.999821 1 0.0
-1.00213 0.95 0.0
-0.93417 0.25 0.0
-0.946881 0.3 0.0
-0.9473 0.4 0.0
-0.929588 0.35 0.0
-0.925005 0.45 0.0
-0.960371 0.525 0.0
-0.959325 0.575 0.0
-0.958279 0.625 0.0
-0.922714 0.5 0.0
-0.959017 0.8 0.0
-0.957233 0.675 0.0
-0.952999 0.7125 0.0
-0.948766 0.75 0.0
-0.895417 0 0.0
-0.895855 0.1 0.0
-0.893136 0.05 0.0
-0.896294 0.2 0.0
-0.888573 0.15 0.0
-0.949184 0.85 0.0
-0.954415 0.9 0.0
-0.949812 1 0.0
-0.949603 0.95 0.0
-0.884011 0.25 0.0
-0.896733 0.3 0.0
-0.874887 0.45 0.0
-0.879449 0.35 0.0
-0.897171 0.4 0.0
-0.920423 0.55 0.0
-0.918132 0.6 0.0
-0.915841 0.65 0.0
-0.872606 0.5 0.0
-0.908968 0.8 0.0
-0.91355 0.7 0.0
-0.898707 0.75 0.0
-0.845208 0 0.0
-0.845438 0.05 0.0
-0.845667 0.1 0.0
-0.845896 0.15 0.0
-0.833853 0.25 0.0
-0.846126 0.2 0.0
-0.899146 0.85 0.0
-0.904386 0.9 0.0
-0.899584 0.95 0.0
-0.899804 1 0.0
-0.838062 0.35 0.0
[...]
POINT_DATA 10839
VECTORS Velocity float
0.21 0 0.0
0.24 0 0.0
0.2275 0 0.0
0.2475 0 0.0
0.25 0 0.0
0.2475 0 0.0
0 0 0.0
0.0475 0 0.0
0.1275 0 0.0
0.09 0 0.0
0.09 0 0.0
0.1275 0 0.0
0.1875 0 0.0
0.16 0 0.0
0.195634 -0.000525232 0.0
0.242775 -0.000410903 0.0
0.215756 -0.000653767 0.0
0.231359 -0.000623505 0.0
0.248623 -0.00016856 0.0
0.24 0 0.0
0.242773 0.000385533 0.0
0.248421 0.000133411 0.0
0 0 0.0
0.0620905 0.00106408 0.0
0.0310018 0.000486018 0.0
0.16 0 0.0
0.1875 0 0.0
0.21 0 0.0
0.2275 0 0.0
0.193683 0.00056803 0.0
0.139046 -0.000218958 0.0
0 0 0.0
0.0475 0 0.0
0.100019 -0.000948964 0.0
0.0621223 -0.00108279 0.0
0.0999023 0.000956658 0.0
0.139066 0.00020538 0.0
0.174708 -0.00079141 0.0
0.201736 -0.00146431 0.0
0.235556 -0.0012171 0.0
0.243783 -0.00085904 0.0
0.223366 -0.00247043 0.0
0.249343 -0.000185293 0.0
0.248595 0.000367477 0.0
0.231339 0.000581485 0.0
0.243785 0.000832346 0.0
0 0 0.0
0.0360352 -0.00132369 0.0
0.0738573 -0.00122071 0.0
0.0646257 -0.00555136 0.0
0.174705 0.000748877 0.0
0.220118 0.00125492 0.0
0.201763 0.00143322 0.0
0.116087 -0.000494728 0.0
0.147332 0.00046707 0.0
0 0 0.0
0.0349485 -0.000253818 0.0
0.0692471 -0.000330623 0.0
0.0903755 0.00249649 0.0
0.110155 -0.00252974 0.0
0.147278 -0.00040475 0.0
0.179517 -0.00256547 0.0
0.206378 -0.00327289 0.0
0.213961 -0.00516699 0.0
0.237831 -0.00210729 0.0
0.246443 -0.00109173 0.0
0.228416 -0.00447826 0.0
0.226001 0.00254068 0.0
0.249024 8.97189e-05 0.0
0.245588 0.00113929 0.0
0.236117 0.00198037 0.0
0 0 0.0
0.0382397 -0.00287565 0.0
0.0967428 -0.00995382 0.0
0.0798455 -0.0123648 0.0
0.179512 0.00249761 0.0
0.206288 0.00312834 0.0
0.128184 0.00617024 0.0
0.166314 0.00739801 0.0
0.153282 0.00354777 0.0
0 0 0.0
0.0360383 0.00135947 0.0
0.0647719 0.00554377 0.0
0.0967142 0.00985037 0.0
0.128107 -0.00630187 0.0
0.157319 -0.00676898 0.0
0.115859 -0.0154374 0.0
0.192999 -0.0102017 0.0
0.216118 -0.00928203 0.0
0.239339 -0.00311909 0.0
0.245885 -0.00164905 0.0
0.248056 -5.90453e-05 0.0
0.231228 -0.00736606 0.0
0.228454 0.00434087 0.0
0.245893 0.00151368 0.0
0.239315 0.00302009 0.0
0 0 0.0
0.0498518 -0.0040796 0.0
0.107324 -0.0204395 0.0
0.084937 -0.0117981 0.0
0.189784 0.0070378 0.0
0.211548 0.00900235 0.0
0.169186 0.0156615 0.0
0.143638 0.0164243 0.0
0 0 0.0
0.0469499 0.00432918 0.0
0.103458 0.0180996 0.0
0.0796125 0.0122313 0.0
0.169176 -0.0158154 0.0
0.143431 -0.016555 0.0
0.125839 -0.0261812 0.0
0.1802 -0.020108 0.0
0.199857 -0.0180226 0.0
0.216486 -0.015466 0.0
0.245207 0.00163121 0.0
0.240387 -0.00459926 0.0
0.245225 -0.0018016 0.0
0.231656 -0.0106257 0.0
0.2312 0.00722482 0.0
0.240345 0.00494226 0.0
0 0 0.0
0.0573251 -0.0034476 0.0
0.109211 -0.0216492 0.0
0.100039 -0.0119731 0.0
0.193373 0.0177261 0.0
0.21289 0.0155909 0.0
0.171846 0.0283004 0.0
0.146199 0.0260377 0.0
0.121556 0.0238312 0.0
0 0 0.0
0.0496644 0.00400461 0.0
0.0920947 0.0147464 0.0
0.149378 -0.0291356 0.0
0.132318 -0.0300461 0.0
0.180527 -0.0285113 0.0
0.202597 -0.0249574 0.0
0.241275 0.0035791 0.0
0.21471 -0.0213914 0.0
0.242365 -0.00151053 0.0
0.23924 -0.00589233 0.0
0.22962 -0.0128172 0.0
0.231665 0.0102712 0.0
0 0 0.0
0.0686148 -0.0030863 0.0
0.12503 -0.0221816 0.0
0.117046 -0.0108088 0.0
0.19783 0.0253313 0.0
0.212221 0.0218222 0.0
0.179319 0.03387 0.0
0.162042 0.0345159 0.0
0.143412 0.0327735 0.0
0.128767 0.0289596 0.0
0.112805 0.0225816 0.0
0 0 0.0
0.0622128 0.00431624 0.0
0.103136 0.0124892 0.0
0.140567 -0.0298175 0.0
0.162111 -0.0348607 0.0
0.187692 -0.0321821 0.0
0.203552 -0.0279356 0.0
0.229544 0.0126027 0.0
0.237199 -9.19449e-05 0.0
0.235352 0.0062662 0.0
0.211402 -0.024472 0.0
0.225192 -0.0127324 0.0
0.233787 -0.00575797 0.0
0.219646 0.0195294 0.0
0 0 0.0
0.0804572 -0.00259988 0.0
0.145127 -0.02405 0.0
0.128281 -0.00861853 0.0
0.194337 0.0310034 0.0
0.206641 0.0264271 0.0
0.183219 0.0338469 0.0
0.169042 0.035172 0.0
0.149848 0.0325335 0.0
0.135282 0.0269909 0.0
0.121328 0.0217819 0.0
0 0 0.0
0.0709582 0.00326225 0.0
0.113556 0.0106188 0.0
0.155233 -0.03175 0.0
0.169256 -0.0354093 0.0
0.192939 -0.0320814 0.0
0.225177 0.0125131 0.0
0.229389 0.00410626 0.0
0.20726 -0.0238478 0.0
0.217282 -0.0144873 0.0
0.220084 0.000398876 0.0
0.22641 -0.00566093 0.0
0.212836 0.0211395 0.0
0.18988 -0.028811 0.0
0 0 0.0
0.0876008 -0.00191047 0.0
0.157035 -0.0242887 0.0
0.149692 -0.0126047 0.0
0.131951 -0.00555989 0.0
0.193833 0.0307942 0.0
0.174923 0.0325479 0.0
0.16335 0.0314522 0.0
0.145189 0.0239147 0.0
0.132768 0.0167805 0.0
0 0 0.0
0.0777746 0.00248958 0.0
0.122069 0.00724027 0.0
0.16503 -0.0293916 0.0
0.175123 -0.0321374 0.0
0.166172 -0.0228505 0.0
0.2191 0.00998329 0.0
0.21218 0.00622856 0.0
0.200649 -0.0225539 0.0
0.206815 -0.0169428 0.0
0.212111 -0.00660642 0.0
0.210324 0.0176227 0.0
0.199808 0.0231278 0.0
0.181412 -0.0272353 0.0
0.190362 -0.0233394 0.0
0 0 0.0
0.0861761 -0.00114133 0.0
0.161325 -0.0146475 0.0
0.13781 -0.00447793 0.0
0.156472 -0.00906907 0.0
0.185926 0.0269869 0.0
0.176964 0.0279023 0.0
0.167864 0.0264328 0.0
0.1567 0.0242355 0.0
0.143672 0.0136287 0.0
0 0 0.0
0.0800982 0.00159028 0.0
0.131714 0.00548035 0.0
0.175081 -0.0232798 0.0
0.169828 -0.0181324 0.0
0.206398 0.0114422 0.0
0.205471 0.00251758 0.0
0.198062 -0.0167899 0.0
0.202993 -0.0109581 0.0
0.205541 -0.00409504 0.0
0.199991 0.0151746 0.0
0.189097 0.0208235 0.0
0.182426 -0.0209862 0.0
0.190056 -0.018252 0.0
0 0 0.0
0.113536 -0.0016785 0.0
0.166917 -0.0109278 0.0
0.157515 -0.00569421 0.0
0.182436 0.0222248 0.0
0.173756 0.0216387 0.0
0.165553 0.0184009 0.0
0.156025 0.0157184 0.0
0.146123 0.00581481 0.0
0 0 0.0
0.0859088 0.00115979 0.0
0.178135 -0.0171483 0.0
0.172796 -0.0140298 0.0
0.200652 0.00759942 0.0
0.19952 -0.000267891 0.0
0.195258 -0.0113182 0.0
0.195964 -0.00542371 0.0
0.195199 0.0109149 0.0
0.190242 0.0148639 0.0
0.184175 0.0169233 0.0
0.189392 -0.0137045 0.0
0.18414 -0.0156985 0.0
0 0 0.0
0.116259 -0.00102541 0.0
0.170966 -0.00767054 0.0
0.161458 -0.00406051 0.0
0.177791 0.0169167 0.0
0.171829 0.0147755 0.0
0.113098 0.00163785 0.0
0.16627 0.0108561 0.0
0.156283 0.00587918 0.0
0 0 0.0
0.179116 -0.0123323 0.0
0.175436 -0.00998355 0.0
0.195509 0.00476146 0.0
0.194355 -0.000260364 0.0
0.191296 -0.00839418 0.0
0.19189 -0.00400665 0.0
0.187619 0.0106772 0.0
0.19117 0.00786633 0.0
0.178794 0.0120447 0.0
0.18334 0.0121274 0.0
0.187463 -0.0104984 0.0
0.183424 -0.0113184 0.0
0 0 0.0
0.118296 -0.000564587 0.0
0.173936 -0.00534833 0.0
0.164768 -0.00270985 0.0
0.170572 0.00750369 0.0
0.174497 0.0104595 0.0
0.115663 0.00100588 0.0
0.160828 0.00397424 0.0
0 0 0.0
0.17997 -0.0087665 0.0
0.177351 -0.00705385 0.0
0.191414 0.00329332 0.0
0.190546 -0.000323471 0.0
0.186035 -0.00797588 0.0
0.187553 -0.00531676 0.0
0.188801 -0.00297095 0.0
0.186092 0.00795247 0.0
0.188314 0.0054783 0.0
0.179405 0.00919748 0.0
0.182767 0.00848791 0.0
0.182973 -0.00808685 0.0
0 0 0.0
0.119272 -0.00053361 0.0
0.176328 -0.00354839 0.0
0.166845 -0.00191301 0.0
0.173007 0.00543205 0.0
0.176537 0.00726712 0.0
0.117463 0.000578048 0.0
0.163889 0.00265732 0.0
0 0 0.0
0.178756 -0.0049887 0.0
0.180699 -0.00569955 0.0
0.188493 0.0022033 0.0
0.187929 -0.000364126 0.0
0.186184 -0.00411682 0.0
0.184471 -0.00511231 0.0
0.186715 -0.0022288 0.0
0.186291 0.00370653 0.0
0.184917 0.00584223 0.0
0.179971 0.00634378 0.0
0.182367 0.00583409 0.0
0.182683 -0.00577579 0.0
0 0 0.0
0.119827 -0.000407944 0.0
0.177562 -0.00264992 0.0
0.168287 -0.00135951 0.0
0.175154 0.00368125 0.0
0.177936 0.00498313 0.0
0 0 0.0
0.166096 0.00176462 0.0
0.118575 0.000399417 0.0
0.181139 -0.0040916 0.0
0.179756 -0.00354394 0.0
0.183843 -0.0039245 0.0
0.186428 0.00138099 0.0
0.186044 -0.000424875 0.0
0.185531 -0.00182832 0.0
0.185104 -0.00322706 0.0
0.184869 0.00243188 0.0
0.183888 0.00394421 0.0
0.180473 0.00388742 0.0
0.182078 0.00394127 0.0
0.182503 -0.00416301 0.0
0 0 0.0
0.12062 -0.000205918 0.0
0.169109 -0.000963088 0.0
0.178576 -0.00189277 0.0
0.176854 0.00232319 0.0
0.178926 0.00336404 0.0
0 0 0.0
0.119269 0.00026622 0.0
0.167142 0.00122295 0.0
0.181416 -0.00321517 0.0
0.180529 -0.00256343 0.0
0.18338 -0.00306057 0.0
0.183862 -0.00220501 0.0
0.184993 0.00078331 0.0
0.184756 -0.000496807 0.0
0.184635 -0.00153814 0.0
0.183868 0.00150713 0.0
0.183158 0.00258271 0.0
0.180672 0.00285949 0.0
0.181867 0.00258643 0.0
0.182407 -0.00306756 0.0
0 0 0.0
0.121119 -5.90106e-05 0.0
0.179669 -0.00132373 0.0
0.170172 -0.00063784 0.0
0.177681 0.00162695 0.0
0.179599 0.0022186 0.0
0.119562 0.000157285 0.0
0 0 0.0
0.16811 0.000765223 0.0
0.181061 -0.00191119 0.0
0.18174 -0.00222529 0.0
0.182905 -0.00214612 0.0
0.18331 -0.00177662 0.0
0.183803 -0.00130354 0.0
0.183619 0.00016344 0.0
0.183847 -0.000579819 0.0
0.183158 0.000829686 0.0
0.182484 0.00132699 0.0
0.180872 0.00161963 0.0
0.181699 0.00161567 0.0
0.182362 -0.00232944 0.0
0 0 0.0
0.121596 -7.63007e-05 0.0
0.170559 -0.000543623 0.0
0.181504 -0.00149077 0.0
0.180037 -0.00106277 0.0
0.178374 0.0010308 0.0
0.179962 0.00154959 0.0
0.119997 8.28555e-05 0.0
0 0 0.0
0.168793 0.000488594 0.0
0.182356 -0.00190816 0.0
0.181927 -0.00184919 0.0
0.182997 -0.0015541 0.0
0.182697 -0.00175924 0.0
0.18303 -0.00115245 0.0
0.183216 -0.000677725 0.0
0.183142 -8.88094e-05 0.0
0.182648 0.000318336 0.0
0.1822 0.00078336 0.0
0.180944 0.00109043 0.0
0.180339 0.000820129 0.0
0.181559 0.000907676 0.0
0 0 0.0
0.171217 -0.000506859 0.0
0.121843 -0.000245087 0.0
0.181804 -0.00126753 0.0
0.180592 -0.00088779 0.0
0.178785 0.000595793 0.0
0 0 0.0
0.120202 5.23495e-06 0.0
0.169255 0.000240356 0.0
0.182381 -0.00162867 0.0
0.182154 -0.00146152 0.0
0.182775 -0.00142256 0.0
0.182578 -0.00153362 0.0
0.18277 -0.00114629 0.0
0.182776 -0.00079502 0.0
0.182764 -0.000309919 0.0
0.180453 0.000468474 0.0
0.181454 0.00044786 0.0
0.182282 -8.08049e-05 0.0
0.181968 0.000353444 0.0
0.180973 0.000550364 0.0
0 0 0.0
0.121525 -0.000161335 0.0
0.171288 -0.000487664 0.0
0.182079 -0.00110069 0.0
0.180973 -0.000789434 0.0
0.169491 9.26539e-05 0.0
0.179006 0.000244039 0.0
0 0 0.0
0.120599 -6.13324e-05 0.0
0.182428 -0.00144055 0.0
0.182339 -0.00130287 0.0
0.182589 -0.00135328 0.0
0.182522 -0.00143411 0.0
0.18257 -0.00117791 0.0
0.182465 -0.000934441 0.0
0.182271 -0.000666006 0.0
0.180527 0.000130148 0.0
0.182002 -0.000412885 0.0
0.18135 7.9526e-05 0.0
0.181672 -0.00019049 0.0
0.180951 5.17797e-05 0.0
0 0 0.0
0.171692 -0.0004275 0.0
0.122436 -5.77788e-05 0.0
0.182383 -0.00100893 0.0
0.181303 -0.000741822 0.0
0.169481 -8.63604e-06 0.0
0.179191 8.34059e-06 0.0
0 0 0.0
0.12001 3.45487e-05 0.0
0.18251 -0.00124525 0.0
0.182504 -0.00137029 0.0
0.182482 -0.00137641 0.0
0.182395 -0.00126264 0.0
0.182514 -0.00142964 0.0
0.182249 -0.00109535 0.0
0.182045 -0.000901522 0.0
0.181788 -0.000700596 0.0
0.182224 -0.0013032 0.0
0.180536 -0.00014766 0.0
0.181496 -0.000516418 0.0
0.181189 -0.000364849 0.0
0.180902 -0.000185183 0.0
0 0 0.0
0.172188 -0.00040784 0.0
0.122602 -0.000184894 0.0
0.182588 -0.00101675 0.0
0.181557 -0.000757495 0.0
0.169513 -0.000136736 0.0
0.17923 -0.000143432 0.0
0 0 0.0
0.120117 -5.77867e-05 0.0
0.182695 -0.0012645 0.0
0.182604 -0.00139021 0.0
0.182418 -0.00146462 0.0
0.182546 -0.00151049 0.0
0.182241 -0.00148679 0.0
0.182019 -0.00116189 0.0
0.181775 -0.00100036 0.0
0.181503 -0.000834162 0.0
0.18203 -0.00139918 0.0
0.180475 -0.000376695 0.0
0.181218 -0.000679246 0.0
0.180998 -0.000594915 0.0
0.180783 -0.000519656 0.0
0 0 0.0
0.172341 -0.000470757 0.0
0.122706 -0.000184092 0.0
0.18285 -0.0010792 0.0
0.181876 -0.000817164 0.0
0.179182 -0.000314612 0.0
0.169454 -0.000268904 0.0
0 0 0.0
0.120317 -0.000191775 0.0
0.182896 -0.00135841 0.0
0.182728 -0.00148766 0.0
0.182178 -0.00169925 0.0
0.182608 -0.00165901 0.0
0.182411 -0.00162454 0.0
0.181783 -0.00127813 0.0
0.181511 -0.00113709 0.0
0.181227 -0.000988433 0.0
0.181921 -0.00164438 0.0
0.180366 -0.000572311 0.0
0.180948 -0.000839971 0.0
0.180641 -0.000759802 0.0
0 0 0.0
0.122553 -0.000202753 0.0
0.172643 -0.000552353 0.0
0.182263 -0.000893392 0.0
0.183121 -0.00151623 0.0
0.183111 -0.00119628 0.0
0.179042 -0.000460389 0.0
0.169314 -0.000288848 0.0
0.119885 -7.16959e-05 0.0
0 0 0.0
0.182681 -0.0018339 0.0
0.182882 -0.00165886 0.0
0.182153 -0.0019051 0.0
0.182424 -0.00185063 0.0
0.18106 -0.00126591 0.0
0.181643 -0.0015457 0.0
0.18135 -0.00141614 0.0
0.181839 -0.00193223 0.0
0.18047 -0.000989958 0.0
0.180157 -0.000787037 0.0
0.180725 -0.00117868 0.0
0 0 0.0
0.123304 -0.000205499 0.0
0.173122 -0.000609025 0.0
0.182534 -0.00100922 0.0
0.183306 -0.00167569 0.0
0.183498 -0.00142306 0.0
0.178874 -0.000589229 0.0
0.169005 -0.000322585 0.0
0.119511 -9.42403e-05 0.0
0 0 0.0
0.178735 -0.000727191 0.0
0.182769 -0.00204449 0.0
0.183115 -0.00199093 0.0
0.18248 -0.00227311 0.0
0.182137 -0.00214243 0.0
0.180816 -0.00165626 0.0
0.181194 -0.00171331 0.0
0.181516 -0.00184765 0.0
0.181757 -0.00227066 0.0
0.180263 -0.00122124 0.0
0.179936 -0.000978799 0.0
0.180521 -0.00145259 0.0
0 0 0.0
0.123712 -0.000186634 0.0
0.173655 -0.000729336 0.0
0.182931 -0.0012058 0.0
0.183595 -0.00194303 0.0
0.183865 -0.00167668 0.0
0.119184 -0.000114777 0.0
0.16892 -0.000426066 0.0
0 0 0.0
0.178377 -0.000850992 0.0
0.182903 -0.00238908 0.0
0.183338 -0.00232938 0.0
0.182544 -0.00265899 0.0
0.182118 -0.00251202 0.0
0.180638 -0.00192246 0.0
0.18103 -0.00203921 0.0
0.18168 -0.00266946 0.0
0.18133 -0.00235416 0.0
0.18007 -0.00140058 0.0
0.179673 -0.0011812 0.0
0.180285 -0.00173763 0.0
0 0 0.0
0.124376 -0.000271971 0.0
0.174082 -0.000940631 0.0
0.18342 -0.00148653 0.0
0.183994 -0.0023878 0.0
0.183587 -0.0027561 0.0
0.184282 -0.00201232 0.0
0.119147 -0.000210757 0.0
0.168497 -0.000582684 0.0
0 0 0.0
0.178069 -0.00100646 0.0
0.183109 -0.00296124 0.0
0.1826 -0.00303145 0.0
0.182108 -0.00295374 0.0
0.181609 -0.00301597 0.0
0.180447 -0.00220424 0.0
0.18083 -0.00241663 0.0
0.181179 -0.00276859 0.0
0.179374 -0.00139073 0.0
0.179781 -0.00165999 0.0
0.180005 -0.00204971 0.0
0 0 0.0
0.124838 -0.000527938 0.0
0.174843 -0.00118069 0.0
0.184029 -0.00182445 0.0
0.184291 -0.00273279 0.0
0.183862 -0.00325829 0.0
0.184761 -0.00240831 0.0
0.118816 -0.000322134 0.0
0.168209 -0.000679324 0.0
0 0 0.0
0.179046 -0.00155894 0.0
0.167653 -0.00070248 0.0
0.177537 -0.00117112 0.0
0.183291 -0.00353042 0.0
0.182655 -0.00344135 0.0
0.182078 -0.00373666 0.0
0.181539 -0.00339811 0.0
0.181052 -0.00313797 0.0
0.18018 -0.00257945 0.0
0.180523 -0.0030203 0.0
0.179339 -0.0020098 0.0
0.17973 -0.00234964 0.0
0.183465 -0.0040551 0.0
0 0 0.0
0.12561 -0.000580321 0.0
0.184781 -0.00219296 0.0
0.175625 -0.00146126 0.0
0.184196 -0.00390235 0.0
0.184819 -0.00341803 0.0
0.18529 -0.00290286 0.0
0.11857 -0.000310582 0.0
0 0 0.0
0.17902 -0.00225175 0.0
0.178609 -0.00179739 0.0
0.177229 -0.00133753 0.0
0.117698 -0.000162849 0.0
0.167354 -0.000768627 0.0
0.182742 -0.00407795 0.0
0.182048 -0.00424397 0.0
0.181406 -0.00398929 0.0
0.181294 -0.00450492 0.0
0.180892 -0.00354523 0.0
0.179851 -0.00301499 0.0
0.180224 -0.00352998 0.0
0.179405 -0.00266243 0.0
0.183615 -0.00467043 0.0
0.126276 -0.000670913 0.0
0 0 0.0
0.185347 -0.00255771 0.0
0.176457 -0.00170223 0.0
0.184554 -0.00467542 0.0
0.185213 -0.00393954 0.0
0.185965 -0.00351071 0.0
0 0 0.0
0.178541 -0.00258827 0.0
0.177942 -0.00212821 0.0
0.176615 -0.00149618 0.0
0.117439 -0.000228228 0.0
0.166604 -0.000903603 0.0
0.18283 -0.0051686 0.0
0.182013 -0.00480883 0.0
0.181141 -0.00506674 0.0
0.180546 -0.00442281 0.0
0.179475 -0.00349605 0.0
0.179895 -0.00410552 0.0
0.178829 -0.00322161 0.0
0.183853 -0.00557957 0.0
0 0 0.0
0.127708 -0.000740021 0.0
0.186282 -0.00312011 0.0
0.177635 -0.00201617 0.0
0.18673 -0.00427789 0.0
0.184957 -0.00563212 0.0
0.185942 -0.00497827 0.0
0 0 0.0
0 0 0.0
0.177972 -0.00298295 0.0
0.177367 -0.00245026 0.0
0.176011 -0.00172805 0.0
0.165942 -0.00106776 0.0
0.116949 -0.000417191 0.0
0.182869 -0.00612778 0.0
0.181909 -0.00567295 0.0
0.179571 -0.0046184 0.0
0.180899 -0.00592232 0.0
0.180209 -0.00516291 0.0
0.179015 -0.00404699 0.0
0.178276 -0.00370407 0.0
0.18287 -0.00703134 0.0
0.184035 -0.00667676 0.0
0.129203 -0.00089274 0.0
0.178769 -0.00249359 0.0
0.187366 -0.00389582 0.0
0.18748 -0.00503957 0.0
0.185395 -0.00678024 0.0
0.186437 -0.00582798 0.0
0 0 0.0
0 0 0.0
0.176784 -0.0027104 0.0
0.177143 -0.00351145 0.0
0.1653 -0.00121562 0.0
0.175101 -0.00201445 0.0
0.116349 -0.00043933 0.0
0.181691 -0.00713697 0.0
0.180555 -0.00691922 0.0
0.17765 -0.00423945 0.0
0.17919 -0.00517722 0.0
0.179905 -0.00580638 0.0
0.178265 -0.00488666 0.0
0.182838 -0.00801869 0.0
0.184308 -0.00851126 0.0
0.185831 -0.00821968 0.0
0.130607 -0.00133204 0.0
0.180463 -0.00323025 0.0
0.189002 -0.00514982 0.0
0.188526 -0.00619025 0.0
0.187342 -0.00751307 0.0
0 0 0.0
0 0 0.0
0.175822 -0.00312871 0.0
0.176358 -0.00399021 0.0
0.16431 -0.00135579 0.0
0.17433 -0.00225477 0.0
0.115426 -0.00046811 0.0
0.179539 -0.00651148 0.0
0.180114 -0.00803075 0.0
0.181379 -0.00840315 0.0
0.176912 -0.00482185 0.0
0.178633 -0.00596445 0.0
0.177578 -0.00560735 0.0
0.175463 -0.00449996 0.0
0.182603 -0.010126 0.0
0 0 0.0
0.184342 -0.0102456 0.0
0.188124 -0.00923715 0.0
0.186222 -0.00993016 0.0
0.13301 -0.0017526 0.0
0.190464 -0.00631465 0.0
0.182965 -0.00439083 0.0
0.189893 -0.00814607 0.0
0 0 0.0
0 0 0.0
0 0 0.0
0 0 0.0
0 0 0.0
0.114535 -0.000503854 0.0
0.173517 -0.00251281 0.0
0.174884 -0.00351701 0.0
0.163426 -0.0014482 0.0
0.178956 -0.00749997 0.0
0.179518 -0.0093011 0.0
0.180977 -0.00983514 0.0
0.176918 -0.00622125 0.0
0.17604 -0.00545794 0.0
0.177639 -0.00720562 0.0
0.175205 -0.00602974 0.0
0.174685 -0.00489561 0.0
0.1822 -0.0119634 0.0
0.184274 -0.0121928 0.0
0 0 0.0
-0.000294765 0.000112591 0.0
0 0 0.0
2.49265e-05 -0.000638322 0.0
0.186553 -0.0120721 0.0
0.188776 -0.0108175 0.0
0.136164 -0.00231247 0.0
0.192296 -0.00802531 0.0
0.185629 -0.00582774 0.0
0.191339 -0.0103474 0.0
0 0 0.0
0 0 0.0
0 0 0.0
5.75299e-05 -0.000337913 0.0
5.43189e-06 0.000413814 0.0
-0.00011799 0.000108998 0.0
0 0 0.0
0.113808 -0.00052717 0.0
0.172477 -0.00273091 0.0
0.173837 -0.00392099 0.0
0.162264 -0.00160647 0.0
0.178237 -0.0086159 0.0
0.178743 -0.0107146 0.0
0.180371 -0.0114459 0.0
0.176155 -0.00689558 0.0
0.176932 -0.0080069 0.0
0.174255 -0.00662105 0.0
0.173245 -0.0055936 0.0
0.181609 -0.0140113 0.0
0.183403 -0.0142665 0.0
0.185346 -0.0142639 0.0
0 0 0.0
-0.000329605 -5.54097e-05 0.0
0 0 0.0
0 0 0.0
0.000223509 -0.00387036 0.0
0.000519464 -0.00330885 0.0
0.187345 -0.0141319 0.0
0.189523 -0.0134654 0.0
0.188742 -0.00760416 0.0
0.140134 -0.00315565 0.0
0.194543 -0.0104055 0.0
0.192748 -0.0132106 0.0
0 0 0.0
0.000420432 -0.000759245 0.0
0.000538353 -0.00198201 0.0
0.000367575 -0.000447472 0.0
0.000555653 -0.000723276 0.0
0 0 0.0
0.112831 -0.000577699 0.0
0.171277 -0.00301175 0.0
0.172638 -0.00432895 0.0
0.161044 -0.00177032 0.0
0.177336 -0.00983201 0.0
0.17775 -0.0122427 0.0
0.179521 -0.0132463 0.0
0.1747 -0.00807508 0.0
0.17612 -0.00883417 0.0
0.172978 -0.00735532 0.0
0.171328 -0.00476075 0.0
0.171909 -0.00617427 0.0
0.180879 -0.0158342 0.0
0.183583 -0.0163089 0.0
0.186597 -0.0168155 0.0
0 0 0.0
0.000545448 -0.000420628 0.0
0 0 0.0
0 0 0.0
0 0 0.0
0 0 0.0
0.00180075 -0.00544717 0.0
-0.000233129 -0.00038743 0.0
-7.62903e-06 -0.00428173 0.0
0.00101266 -0.00929277 0.0
0.00126073 -0.00711405 0.0
0 0 0.0
-0.00129439 0.00611413 0.0
0.190085 -0.0177441 0.0
0.193811 -0.0160947 0.0
0 0 0.0
0.146007 -0.00475656 0.0
0.192844 -0.0101034 0.0
0.197589 -0.0146769 0.0
0 0 0.0
0 0 0.0
0.00146313 -0.00314097 0.0
0.00171704 -0.00227638 0.0
0.00232459 -0.00173947 0.0
0 0 0.0
0.11181 -0.000645481 0.0
0.169767 -0.00335541 0.0
0.159807 -0.00194586 0.0
0.170129 -0.00508738 0.0
0.176225 -0.0111387 0.0
0.176821 -0.0134697 0.0
0.178386 -0.0152282 0.0
0.173618 -0.00882361 0.0
0.174925 -0.00992548 0.0
0.171548 -0.00809432 0.0
0.170796 -0.00659719 0.0
0.184572 -0.018612 0.0
0.179889 -0.0178064 0.0
0.182259 -0.0202889 0.0
0.18584 -0.0214089 0.0
0.190095 -0.0222808 0.0
0 0 0.0
0.00174693 -0.000607043 0.0
-0.00108234 0.0033627 0.0
-0.0018845 -0.00297631 0.0
-0.000438856 0.000167066 0.0
0.00314647 -0.0089096 0.0
0.00563379 -0.00900027 0.0
-0.000577608 -0.00538332 0.0
0.000477192 -0.0113978 0.0
0.00272508 -0.0138514 0.0
-0.00185314 0.0101415 0.0
-0.00469898 0.00339482 0.0