# vtk DataFile Version 3.0
Mesh NS-CD Problem
ASCII
DATASET UNSTRUCTURED_GRID
POINTS 10839 float
-2 0.3 0.0
-2 0.4 0.0
-2 0.35 0.0
-2 0.45 0.0
-2 0.5 0.0
-2 0.55 0.0
-2 0 0.0
-2 0.05 0.0
-2 0.85 0.0
-2 0.9 0.0
-2 0.1 0.0
-2 0.15 0.0
-2 0.25 0.0
-2 0.2 0.0
-1.96653 0.266667 0.0
-1.96524 0.415385 0.0
-1.96485 0.315 0.0
-1.96348 0.363636 0.0
-1.96414 0.464286 0.0
-2 0.6 0.0
-1.96538 0.584615 0.0
-1.96538 0.538462 0.0
-1.94979 0 0.0
-1.96653 0.0666666 0.0
-1.93306 0.0333333 0.0
-2 0.8 0.0
-2 0.75 0.0
-2 0.7 0.0
-2 0.65 0.0
-1.96249 0.7375 0.0
-1.96666 0.833333 0.0
-2 1 0.0
-2 0.95 0.0
-1.96249 0.8875 0.0
-1.96666 0.933333 0.0
-1.96234 0.1125 0.0
-1.96653 0.166667 0.0
-1.93724 0.225 0.0
-1.92971 0.28 0.0
-1.93048 0.380769 0.0
-1.93048 0.423077 0.0
-1.89958 0.3375 0.0
-1.9292 0.484203 0.0
-1.92117 0.530907 0.0
-1.96363 0.636364 0.0
-1.93076 0.576923 0.0
-1.89958 0 0.0
-1.88703 0.0375 0.0
-1.90963 0.08 0.0
-1.86611 0.0666666 0.0
-1.93749 0.775 0.0
-1.93635 0.672727 0.0
-1.92999 0.72 0.0
-1.93332 0.866667 0.0
-1.92856 0.821429 0.0
-1.94999 1 0.0
-1.92499 0.9625 0.0
-1.92499 0.925 0.0
-1.89998 0.9 0.0
-1.89958 0.125 0.0
-1.92827 0.178571 0.0
-1.89958 0.233333 0.0
-1.89045 0.290909 0.0
-1.86096 0.311538 0.0
-1.89241 0.392857 0.0
-1.89334 0.448489 0.0
-1.85655 0.357143 0.0
-1.89614 0.653846 0.0
-1.89427 0.504121 0.0
-1.8952 0.559753 0.0
-1.89614 0.615385 0.0
-1.84937 0 0.0
-1.83264 0.0333333 0.0
-1.85655 0.107143 0.0
-1.81172 0.075 0.0
-1.89998 0.766667 0.0
-1.89089 0.709091 0.0
-1.87498 0.85 0.0
-1.85998 0.79 0.0
-1.88748 0.8125 0.0
-1.89998 1 0.0
-1.88748 0.9625 0.0
-1.86664 0.933333 0.0
-1.85712 0.892857 0.0
-1.87448 0.15 0.0
-1.86611 0.194444 0.0
-1.83264 0.133333 0.0
-1.83264 0.2625 0.0
-1.82068 0.321429 0.0
-1.85664 0.404762 0.0
-1.85674 0.452381 0.0
-1.85683 0.5 0.0
-1.81184 0.375 0.0
-1.85712 0.642857 0.0
-1.85693 0.547619 0.0
-1.85702 0.595238 0.0
-1.79917 0 0.0
-1.78482 0.0357143 0.0
-1.79917 0.116667 0.0
-1.76569 0.0666666 0.0
-1.85452 0.745455 0.0
-1.82689 0.692308 0.0
-1.81815 0.781818 0.0
-1.82497 0.825 0.0
-1.84997 1 0.0
-1.8333 0.958333 0.0
-1.81247 0.8875 0.0
-1.81247 0.925 0.0
-1.81742 0.218182 0.0
-1.82427 0.175 0.0
-1.77634 0.145455 0.0
-1.79144 0.242308 0.0
-1.78482 0.285714 0.0
-1.77469 0.332653 0.0
-1.81215 0.529762 0.0
-1.81194 0.422619 0.0
-1.81203 0.470238 0.0
-1.76714 0.392857 0.0
-1.81234 0.625 0.0
-1.79732 0.571429 0.0
-1.74896 0 0.0
-1.73222 0.0333333 0.0
-1.75398 0.105 0.0
-1.71883 0.07 0.0
-1.79227 0.730769 0.0
-1.78007 0.679121 0.0
-1.75765 0.769231 0.0
-1.78178 0.818182 0.0
-1.78996 0.86 0.0
-1.79996 1 0.0
-1.78568 0.964286 0.0
-1.76663 0.922222 0.0
-1.76569 0.1875 0.0
-1.73222 0.15 0.0
-1.74896 0.25 0.0
-1.73714 0.304762 0.0
-1.76743 0.537202 0.0
-1.72869 0.343878 0.0
-1.76732 0.485119 0.0
-1.76723 0.440476 0.0
-1.72243 0.410714 0.0
-1.76757 0.607143 0.0
-1.69875 0 0.0
-1.68369 0.035 0.0
-1.69875 0.1125 0.0
-1.66528 0.075 0.0
-1.74341 0.708974 0.0
-1.73324 0.665934 0.0
-1.70441 0.74478 0.0
-1.71423 0.785714 0.0
-1.72303 0.826923 0.0
-1.74541 0.854545 0.0
-1.74541 0.890909 0.0
-1.74996 1 0.0
-1.73745 0.9625 0.0
-1.71359 0.927273 0.0
-1.68716 0.153846 0.0
-1.7131 0.214286 0.0
-1.70725 0.275 0.0
-1.69712 0.321939 0.0
-1.72279 0.589286 0.0
-1.72261 0.5 0.0
-1.7227 0.544643 0.0
-1.6827 0.355102 0.0
-1.67773 0.428571 0.0
-1.70763 0.464286 0.0
-1.70369 0.62449 0.0
-1.64854 0 0.0
-1.63181 0.0375 0.0
-1.64137 0.142857 0.0
-1.61764 0.0769231 0.0
-1.69458 0.703846 0.0
-1.67471 0.657437 0.0
-1.66143 0.727637 0.0
-1.67125 0.768571 0.0
-1.67851 0.821429 0.0
-1.68841 0.861538 0.0
-1.70904 0.890909 0.0
-1.69995 1 0.0
-1.68176 0.963636 0.0
-1.67267 0.927273 0.0
-1.65427 0.187143 0.0
-1.66718 0.231429 0.0
-1.66554 0.3 0.0
-1.67802 0.571429 0.0
-1.67792 0.523809 0.0
-1.6367 0.366327 0.0
-1.63682 0.423469 0.0
-1.62568 0.502976 0.0
-1.6629 0.470238 0.0
-1.65254 0.618367 0.0
-1.6059 0.307143 0.0
-1.59833 0 0.0
-1.58288 0.0384615 0.0
-1.60563 0.169643 0.0
-1.58179 0.112271 0.0
-1.56964 0.0714286 0.0
-1.64574 0.690385 0.0
-1.62827 0.751429 0.0
-1.63371 0.791071 0.0
-1.64279 0.857143 0.0
-1.65378 0.896154 0.0
-1.64994 1 0.0
-1.6363 0.963636 0.0
-1.61916 0.930769 0.0
-1.61345 0.209107 0.0
-1.62126 0.248571 0.0
-1.56989 0.196429 0.0
-1.63324 0.553571 0.0
-1.58846 0.535714 0.0
-1.59408 0.361905 0.0
-1.59161 0.402211 0.0
-1.58832 0.464286 0.0
-1.61504 0.598581 0.0
-1.59683 0.64359 0.0
-1.57899 0.274107 0.0
-1.56176 0.322381 0.0
-1.54812 0 0.0
-1.53378 0.0357143 0.0
-1.54593 0.147619 0.0
-1.53385 0.0732143 0.0
-1.53393 0.110714 0.0
-1.58522 0.704286 0.0
-1.58709 0.745 0.0
-1.58896 0.785714 0.0
-1.60695 0.830357 0.0
-1.60707 0.892857 0.0
-1.59993 1 0.0
-1.58454 0.965385 0.0
-1.57135 0.928571 0.0
-1.55209 0.241071 0.0
-1.5291 0.198214 0.0
-1.56936 0.570918 0.0
-1.54369 0.517857 0.0
-1.5464 0.380952 0.0
-1.54564 0.427721 0.0
-1.54488 0.47449 0.0
-1.55026 0.606122 0.0
-1.54222 0.677143 0.0
-1.52943 0.282857 0.0
-1.52143 0.33619 0.0
-1.49792 0 0.0
-1.49802 0.05 0.0
-1.49822 0.15 0.0
-1.49312 0.1 0.0
-1.5423 0.717143 0.0
-1.54419 0.767857 0.0
-1.54727 0.819048 0.0
-1.57122 0.861905 0.0
-1.53553 0.914286 0.0
-1.54992 1 0.0
-1.53563 0.964286 0.0
-1.49842 0.25 0.0
-1.48831 0.2 0.0
-1.5214 0.558929 0.0
-1.49891 0.5 0.0
-1.49871 0.4 0.0
-1.47631 0.45 0.0
-1.49911 0.6 0.0
-1.49921 0.65 0.0
-1.49931 0.7 0.0
-1.48111 0.35 0.0
-1.48351 0.3 0.0
-1.44771 0 0.0
-1.44782 0.05 0.0
-1.44804 0.15 0.0
-1.44793 0.1 0.0
-1.49941 0.75 0.0
-1.49951 0.8 0.0
-1.49981 0.95 0.0
-1.49961 0.85 0.0
-1.49971 0.9 0.0
-1.49991 1 0.0
-1.44826 0.25 0.0
-1.43815 0.2 0.0
-1.47151 0.55 0.0
-1.44881 0.5 0.0
-1.44859 0.4 0.0
-1.42619 0.45 0.0
-1.44913 0.65 0.0
-1.44902 0.6 0.0
-1.44935 0.75 0.0
-1.44924 0.7 0.0
-1.43972 0.35 0.0
-1.43336 0.3 0.0
-1.3975 0 0.0
-1.39762 0.05 0.0
-1.39786 0.15 0.0
-1.39274 0.1 0.0
-1.44957 0.85 0.0
-1.44946 0.8 0.0
-1.4523 0.95 0.0
-1.44968 0.9 0.0
-1.4499 1 0.0
-1.3981 0.25 0.0
-1.38798 0.2 0.0
-1.42141 0.55 0.0
-1.3987 0.5 0.0
-1.39834 0.35 0.0
-1.37845 0.4 0.0
-1.37607 0.45 0.0
-1.40784 0.65 0.0
-1.39894 0.6 0.0
-1.41185 0.75 0.0
-1.39918 0.7 0.0
-1.38322 0.3 0.0
-1.34729 0 0.0
-1.34492 0.05 0.0
-1.34018 0.15 0.0
-1.34255 0.1 0.0
-1.40707 0.85 0.0
-1.39941 0.8 0.0
-1.39977 0.95 0.0
-1.39965 0.9 0.0
-1.39989 1 0.0
-1.33781 0.2 0.0
-1.33544 0.25 0.0
-1.37131 0.55 0.0
-1.34859 0.5 0.0
-1.33833 0.4 0.0
-1.3307 0.35 0.0
-1.32595 0.45 0.0
-1.34885 0.6 0.0
-1.36655 0.65 0.0
-1.36179 0.75 0.0
-1.34911 0.7 0.0
-1.33307 0.3 0.0
-1.29708 0 0.0
-1.29722 0.05 0.0
-1.2975 0.15 0.0
-1.29236 0.1 0.0
-1.35703 0.85 0.0
-1.34937 0.8 0.0
-1.34988 1 0.0
-1.34962 0.9 0.0
-1.35226 0.95 0.0
-1.28528 0.25 0.0
-1.28764 0.2 0.0
-1.28931 0.35 0.0
-1.32121 0.55 0.0
-1.29848 0.5 0.0
-1.28709 0.45 0.0
-1.2982 0.4 0.0
-1.29876 0.6 0.0
-1.31647 0.65 0.0
-1.29918 0.75 0.0
-1.29904 0.7 0.0
-1.28292 0.3 0.0
-1.24687 0 0.0
-1.24702 0.05 0.0
-1.24717 0.1 0.0
-1.24732 0.15 0.0
-1.29946 0.85 0.0
-1.29932 0.8 0.0
-1.29987 1 0.0
-1.29974 0.95 0.0
-1.30462 0.9 0.0
-1.24762 0.25 0.0
-1.23747 0.2 0.0
-1.24792 0.35 0.0
-1.22807 0.4 0.0
-1.27111 0.55 0.0
-1.24837 0.5 0.0
-1.24822 0.45 0.0
-1.24867 0.6 0.0
-1.26639 0.65 0.0
-1.26167 0.75 0.0
-1.24897 0.7 0.0
-1.23277 0.3 0.0
-1.19667 0 0.0
-1.19683 0.05 0.0
-1.18964 0.15 0.0
-1.19198 0.1 0.0
-1.25695 0.85 0.0
-1.24927 0.8 0.0
-1.25223 0.95 0.0
-1.24987 1 0.0
-1.24957 0.9 0.0
-1.1873 0.2 0.0
-1.18496 0.25 0.0
-1.18028 0.35 0.0
-1.17794 0.4 0.0
-1.1981 0.45 0.0
-1.19842 0.55 0.0
-1.19826 0.5 0.0
-1.19858 0.6 0.0
-1.19874 0.65 0.0
-1.19906 0.75 0.0
-1.1989 0.7 0.0
-1.18262 0.3 0.0
-1.14646 0 0.0
-1.14663 0.05 0.0
-1.1418 0.1 0.0
-1.13713 0.2 0.0
-1.14697 0.15 0.0
-1.20691 0.85 0.0
-1.20926 0.8 0.0
-1.20221 0.95 0.0
-1.19986 1 0.0
-1.20456 0.9 0.0
-1.13997 0.3 0.0
-1.14731 0.25 0.0
-1.13781 0.4 0.0
-1.13014 0.35 0.0
-1.12548 0.45 0.0
-1.14815 0.5 0.0
-1.15962 0.55 0.0
-1.14849 0.6 0.0
-1.15745 0.65 0.0
-1.16155 0.75 0.0
-1.14917 0.8 0.0
-1.14883 0.7 0.0
-1.09625 0 0.0
-1.09661 0.1 0.0
-1.09393 0.05 0.0
-1.09697 0.2 0.0
-1.08929 0.15 0.0
-1.15687 0.85 0.0
-1.14985 1 0.0
-1.15219 0.95 0.0
-1.14951 0.9 0.0
-1.09733 0.3 0.0
-1.08465 0.25 0.0
-1.09769 0.4 0.0
-1.08 0.35 0.0
-1.08661 0.45 0.0
-1.09804 0.5 0.0
-1.12082 0.55 0.0
-1.10916 0.8 0.0
-1.10629 0.7 0.0
-1.0984 0.6 0.0
-1.11616 0.65 0.0
-1.11149 0.75 0.0
-1.04604 0 0.0
-1.04623 0.05 0.0
-1.04642 0.1 0.0
-1.0468 0.2 0.0
-1.03911 0.15 0.0
-1.09948 0.9 0.0
-1.0993 0.85 0.0
-1.09984 1 0.0
-1.09966 0.95 0.0
-1.04718 0.3 0.0
-1.03449 0.25 0.0
-1.04756 0.4 0.0
-1.02986 0.35 0.0
-1.04775 0.45 0.0
-1.04794 0.5 0.0
-1.04813 0.55 0.0
-1.05911 0.8 0.0
-1.04831 0.6 0.0
-1.06376 0.7 0.0
-1.0485 0.65 0.0
-1.04888 0.75 0.0
-0.995833 0 0.0
-0.991231 0.1 0.0
-0.996033 0.05 0.0
-0.986629 0.2 0.0
-0.98893 0.15 0.0
-1.05447 0.9 0.0
-1.04926 0.85 0.0
-1.04983 1 0.0
-1.04964 0.95 0.0
-0.984328 0.25 0.0
-0.99703 0.3 0.0
-0.997429 0.4 0.0
-0.997628 0.45 0.0
-0.979726 0.35 0.0
-0.997827 0.5 0.0
-0.998027 0.55 0.0
-0.998226 0.6 0.0
-0.961416 0.475 0.0
-1.00907 0.8 0.0
-0.998426 0.65 0.0
-0.998625 0.7 0.0
-1.01138 0.75 0.0
-0.945625 0 0.0
-0.946044 0.1 0.0
-0.943334 0.05 0.0
-0.946463 0.2 0.0
-0.938752 0.15 0.0
-1.00444 0.9 0.0
-1.00675 0.85 0.0
-0.999821 1 0.0
-1.00213 0.95 0.0
-0.93417 0.25 0.0
-0.946881 0.3 0.0
-0.9473 0.4 0.0
-0.929588 0.35 0.0
-0.925005 0.45 0.0
-0.960371 0.525 0.0
-0.959325 0.575 0.0
-0.958279 0.625 0.0
-0.922714 0.5 0.0
-0.959017 0.8 0.0
-0.957233 0.675 0.0
-0.952999 0.7125 0.0
-0.948766 0.75 0.0
-0.895417 0 0.0
-0.895855 0.1 0.0
-0.893136 0.05 0.0
-0.896294 0.2 0.0
-0.888573 0.15 0.0
-0.949184 0.85 0.0
-0.954415 0.9 0.0
-0.949812 1 0.0
-0.949603 0.95 0.0
-0.884011 0.25 0.0
-0.896733 0.3 0.0
-0.874887 0.45 0.0
-0.879449 0.35 0.0
-0.897171 0.4 0.0
-0.920423 0.55 0.0
-0.918132 0.6 0.0
-0.915841 0.65 0.0
-0.872606 0.5 0.0
-0.908968 0.8 0.0
-0.91355 0.7 0.0
-0.898707 0.75 0.0
-0.845208 0 0.0
-0.845438 0.05 0.0
-0.845667 0.1 0.0
-0.845896 0.15 0.0
-0.833853 0.25 0.0
-0.846126 0.2 0.0
-0.899146 0.85 0.0
-0.904386 0.9 0.0
-0.899584 0.95 0.0
-0.899804 1 0.0
-0.838062 0.35 0.0
[...]
POINT_DATA 10839
VECTORS Velocity float
0.21 0 0.0
0.24 0 0.0
0.2275 0 0.0
0.2475 0 0.0
0.25 0 0.0
0.2475 0 0.0
0 0 0.0
0.0475 0 0.0
0.1275 0 0.0
0.09 0 0.0
0.09 0 0.0
0.1275 0 0.0
0.1875 0 0.0
0.16 0 0.0
0.19556 -4.55131e-05 0.0
0.242837 -4.46664e-05 0.0
0.215776 -5.48702e-05 0.0
0.231403 -5.60999e-05 0.0
0.248718 -3.02624e-05 0.0
0.24 0 0.0
0.242836 6.96889e-06 0.0
0.248514 -9.64153e-06 0.0
0 0 0.0
0.0622232 -7.60423e-06 0.0
0.0322314 -4.04436e-06 0.0
0.16 0 0.0
0.1875 0 0.0
0.21 0 0.0
0.2275 0 0.0
0.193596 1.96167e-05 0.0
0.138891 1.2503e-06 0.0
0 0 0.0
0.0475 0 0.0
0.0998428 -2.31388e-06 0.0
0.062221 2.4255e-06 0.0
0.0998475 -1.09773e-05 0.0
0.138893 -1.94828e-05 0.0
0.17439 -6.84077e-05 0.0
0.201613 -0.000108683 0.0
0.235774 -0.000110021 0.0
0.244065 -9.1106e-05 0.0
0.223593 -0.000183792 0.0
0.249724 -4.97262e-05 0.0
0.249015 -1.76225e-05 0.0
0.231402 1.80679e-05 0.0
0.244064 1.74106e-05 0.0
0 0 0.0
0.0360876 1.85688e-05 0.0
0.0736035 1.33887e-05 0.0
0.0621999 7.97704e-05 0.0
0.174384 2.35144e-05 0.0
0.220163 4.46155e-05 0.0
0.201608 4.96538e-05 0.0
0.11556 -1.01392e-05 0.0
0.146698 6.20802e-06 0.0
0 0 0.0
0.0360937 -3.03223e-06 0.0
0.069367 -1.29368e-05 0.0
0.0899963 -4.80181e-05 0.0
0.109405 2.84101e-06 0.0
0.146707 -4.76943e-05 0.0
0.178937 -0.000133133 0.0
0.206308 -0.000199958 0.0
0.214505 -0.000295817 0.0
0.238487 -0.000181036 0.0
0.247291 -0.000125001 0.0
0.229559 -0.000303127 0.0
0.226317 9.4761e-05 0.0
0.24992 -4.98136e-05 0.0
0.246375 1.83376e-05 0.0
0.236654 6.80888e-05 0.0
0 0 0.0
0.0321129 6.44286e-05 0.0
0.0957225 9.29283e-05 0.0
0.069306 0.000219323 0.0
0.178921 5.76385e-05 0.0
0.206292 0.00010551 0.0
0.127554 -4.15512e-05 0.0
0.165993 7.06649e-05 0.0
0.152395 1.85151e-05 0.0
0 0 0.0
0.0360694 -2.48435e-05 0.0
0.062168 -9.90188e-05 0.0
0.0956843 -0.000133861 0.0
0.127585 -1.25668e-05 0.0
0.156746 -0.000119806 0.0
0.115736 8.01939e-05 0.0
0.193715 -0.000341008 0.0
0.218126 -0.000454606 0.0
0.240849 -0.000254016 0.0
0.247619 -0.000176082 0.0
0.249873 -7.87743e-05 0.0
0.23427 -0.000449341 0.0
0.229546 0.000158138 0.0
0.247615 1.92936e-05 0.0
0.240837 0.00010548 0.0
0 0 0.0
0.0341242 0.000115844 0.0
0.103291 0.000194545 0.0
0.0619848 0.000246315 0.0
0.189818 0.000154017 0.0
0.21303 0.000268039 0.0
0.170764 0.000166378 0.0
0.144572 -3.30096e-06 0.0
0 0 0.0
0.0397751 -0.0001001 0.0
0.0999515 -0.000242019 0.0
0.0692438 -0.000250538 0.0
0.170824 -0.000286175 0.0
0.144626 -9.26153e-05 0.0
0.124794 3.13292e-05 0.0
0.183873 -0.000479041 0.0
0.204221 -0.000623473 0.0
0.221957 -0.000699781 0.0
0.248873 -5.96779e-06 0.0
0.243824 -0.000344785 0.0
0.248879 -0.000199917 0.0
0.238259 -0.00061627 0.0
0.234244 0.000261223 0.0
0.244648 0.000157379 0.0
0 0 0.0
0.031669 9.63588e-05 0.0
0.0942633 0.000201711 0.0
0.0648684 0.000107404 0.0
0.196879 0.000383628 0.0
0.217873 0.000475029 0.0
0.177898 0.000469599 0.0
0.149165 9.2652e-05 0.0
0.120718 -0.000163979 0.0
0 0 0.0
0.0340728 -0.000125522 0.0
0.0715309 -0.000303155 0.0
0.152922 -0.000313307 0.0
0.128348 -0.000214967 0.0
0.187905 -0.000783589 0.0
0.211972 -0.00100367 0.0
0.248191 7.45623e-05 0.0
0.225458 -0.00102594 0.0
0.249348 -0.000201174 0.0
0.246078 -0.000421286 0.0
0.241497 -0.000785792 0.0
0.238226 0.000372369 0.0
0 0 0.0
0.0331537 1.89394e-06 0.0
0.100538 -0.000293432 0.0
0.0695997 -0.00046172 0.0
0.206425 0.000728793 0.0
0.222299 0.000767148 0.0
0.190511 0.0010538 0.0
0.169087 0.000755432 0.0
0.143958 0.000361417 0.0
0.124904 -2.13861e-05 0.0
0.0974568 -0.000219993 0.0
0 0 0.0
0.0354581 -0.000130076 0.0
0.0671406 -0.00010632 0.0
0.131434 -0.000828611 0.0
0.169215 -0.000930732 0.0
0.199716 -0.00129359 0.0
0.21821 -0.00140876 0.0
0.241457 0.000482357 0.0
0.249285 -0.000143679 0.0
0.247319 0.000192796 0.0
0.228573 -0.00143443 0.0
0.24394 -0.000926391 0.0
0.247932 -0.000459634 0.0
0.233982 0.000835406 0.0
0 0 0.0
0.035913 -0.000236071 0.0
0.124006 -0.0017533 0.0
0.0722166 -0.00131908 0.0
0.208491 0.00121871 0.0
0.224765 0.00129752 0.0
0.198479 0.00170868 0.0
0.178661 0.00145086 0.0
0.147846 0.00102828 0.0
0.120256 0.00055703 0.0
0.0976095 6.25265e-05 0.0
0 0 0.0
0.034323 -4.05047e-06 0.0
0.0673453 0.000279812 0.0
0.153593 -0.00176163 0.0
0.17882 -0.00175071 0.0
0.210072 -0.00187557 0.0
0.243905 0.000582055 0.0
0.248306 7.58998e-05 0.0
0.231251 -0.00191381 0.0
0.242751 -0.00128044 0.0
0.248159 -0.000155969 0.0
0.247845 -0.000533911 0.0
0.235019 0.00124962 0.0
0.212538 -0.00297313 0.0
0 0 0.0
0.037888 -0.000562209 0.0
0.142652 -0.00313891 0.0
0.102258 -0.00333682 0.0
0.0691436 -0.00201875 0.0
0.213508 0.00187092 0.0
0.187418 0.00238229 0.0
0.16646 0.00217507 0.0
0.123792 0.00164941 0.0
0.09385 0.000959404 0.0
0 0 0.0
0.0346097 0.000185201 0.0
0.0651899 0.00100278 0.0
0.166817 -0.0030101 0.0
0.187614 -0.00281298 0.0
0.159401 -0.00465527 0.0
0.245525 0.000609722 0.0
0.246274 0.000477274 0.0
0.229619 -0.00265429 0.0
0.238563 -0.00206405 0.0
0.246335 -0.000933666 0.0
0.238687 0.00139226 0.0
0.228051 0.00228467 0.0
0.199155 -0.00390998 0.0
0.217404 -0.0038852 0.0
0 0 0.0
0.0369194 -0.000784371 0.0
0.128512 -0.00560416 0.0
0.0726555 -0.00284584 0.0
0.102771 -0.00492779 0.0
0.207868 0.00322166 0.0
0.190372 0.00349063 0.0
0.169457 0.00361296 0.0
0.142401 0.00293955 0.0
0.0972858 0.00226786 0.0
0 0 0.0
0.0339047 0.000428104 0.0
0.068821 0.0019619 0.0
0.183661 -0.00513663 0.0
0.160287 -0.00656595 0.0
0.242329 0.00136437 0.0
0.246122 0.000210052 0.0
0.233396 -0.0031975 0.0
0.24167 -0.00211042 0.0
0.245867 -0.000934647 0.0
0.236055 0.00239223 0.0
0.217032 0.00400973 0.0
0.202266 -0.00551584 0.0
0.221085 -0.00474859 0.0
0 0 0.0
0.0533061 -0.00184115 0.0
0.130995 -0.00790529 0.0
0.097166 -0.00565952 0.0
0.202177 0.00466296 0.0
0.178727 0.00526595 0.0
0.149672 0.00554927 0.0
0.121096 0.0041402 0.0
0.082873 0.00352343 0.0
0 0 0.0
0.0366131 0.00074494 0.0
0.187186 -0.00745264 0.0
0.161024 -0.00873736 0.0
0.242551 0.00152713 0.0
0.245074 -0.000271181 0.0
0.235986 -0.00363898 0.0
0.24204 -0.00223467 0.0
0.235826 0.00309244 0.0
0.224308 0.00458046 0.0
0.208056 0.00591221 0.0
0.224014 -0.00561311 0.0
0.207967 -0.00697984 0.0
0 0 0.0
0.0571167 -0.00218387 0.0
0.132691 -0.0102315 0.0
0.100774 -0.00678908 0.0
0.186866 0.00704735 0.0
0.160717 0.00786926 0.0
0.0528736 0.001789 0.0
0.13054 0.0076463 0.0
0.096238 0.00536697 0.0
0 0 0.0
0.186034 -0.010153 0.0
0.160737 -0.0115543 0.0
0.241732 0.00168683 0.0
0.243063 -0.000326214 0.0
0.234166 -0.00469689 0.0
0.239797 -0.00284703 0.0
0.222631 0.00615793 0.0
0.233988 0.00409955 0.0
0.185599 0.00972579 0.0
0.206545 0.00803852 0.0
0.222545 -0.00704162 0.0
0.206347 -0.00926289 0.0
0 0 0.0
0.0615259 -0.00239149 0.0
0.135285 -0.0121036 0.0
0.106308 -0.00776367 0.0
0.132167 0.00995405 0.0
0.160309 0.010674 0.0
0.0563904 0.00213907 0.0
0.100193 0.0066509 0.0
0 0 0.0
0.184582 -0.0130139 0.0
0.160856 -0.0141778 0.0
0.23947 0.00223776 0.0
0.240517 -0.000358267 0.0
0.220652 -0.00865123 0.0
0.230649 -0.00656176 0.0
0.237026 -0.00354056 0.0
0.220759 0.00767995 0.0
0.231543 0.00529994 0.0
0.184431 0.01183 0.0
0.204457 0.0104565 0.0
0.204213 -0.0118019 0.0
0 0 0.0
0.0661662 -0.00251455 0.0
0.13953 -0.0133964 0.0
0.11203 -0.00809556 0.0
0.134152 0.0115562 0.0
0.160175 0.0132908 0.0
0.06074 0.00234274 0.0
0.10498 0.00751456 0.0
0 0 0.0
0.161682 -0.0161758 0.0
0.182883 -0.0162666 0.0
0.236568 0.00286158 0.0
0.237268 -0.000411507 0.0
0.227984 -0.00774585 0.0
0.216657 -0.0114903 0.0
0.233511 -0.00431808 0.0
0.228432 0.0066645 0.0
0.218493 0.00932164 0.0
0.182931 0.014511 0.0
0.201954 0.0129544 0.0
0.201684 -0.0143223 0.0
0 0 0.0
0.0703199 -0.00239288 0.0
0.143432 -0.0136178 0.0
0.118111 -0.00786813 0.0
0.137524 0.0128223 0.0
0.160754 0.0153957 0.0
0 0 0.0
0.110569 0.00782627 0.0
0.0649214 0.00238409 0.0
0.181938 -0.0180597 0.0
0.163428 -0.0172672 0.0
0.213757 -0.0130837 0.0
0.232972 0.00354786 0.0
0.233316 -0.000463059 0.0
0.230291 -0.00492522 0.0
0.224996 -0.0088912 0.0
0.224648 0.00802917 0.0
0.215195 0.0113131 0.0
0.181376 0.0170787 0.0
0.199238 0.0151434 0.0
0.199074 -0.0164234 0.0
0 0 0.0
0.0746119 -0.00208517 0.0
0.123499 -0.00726451 0.0
0.148523 -0.0130929 0.0
0.142485 0.0132112 0.0
0.162183 0.0165924 0.0
0 0 0.0
0.0694962 0.00227517 0.0
0.115826 0.00768854 0.0
0.181704 -0.0186625 0.0
0.166054 -0.0171862 0.0
0.210738 -0.0143172 0.0
0.218842 -0.0105153 0.0
0.22865 0.00418749 0.0
0.228635 -0.000528957 0.0
0.226684 -0.0054643 0.0
0.220309 0.00916007 0.0
0.211513 0.0129693 0.0
0.180942 0.0178311 0.0
0.196667 0.01655 0.0
0.196702 -0.0176262 0.0
0 0 0.0
0.0782642 -0.00171284 0.0
0.154872 -0.0115263 0.0
0.129718 -0.00610626 0.0
0.146725 0.0127577 0.0
0.164497 0.016691 0.0
0.0733369 0.00204316 0.0
0 0 0.0
0.122241 0.00696397 0.0
0.169325 -0.0160396 0.0
0.182181 -0.0181363 0.0
0.205802 -0.0150984 0.0
0.214197 -0.0110111 0.0
0.221623 -0.00591795 0.0
0.221344 0.00478316 0.0
0.223405 -0.000598817 0.0
0.215628 0.00976144 0.0
0.206378 0.0140336 0.0
0.181036 0.0175626 0.0
0.194494 0.0168303 0.0
0.194773 -0.0176534 0.0
0 0 0.0
0.0813682 -0.0013687 0.0
0.13453 -0.0049902 0.0
0.172916 -0.0140692 0.0
0.159258 -0.0100204 0.0
0.151956 0.0114897 0.0
0.16689 0.0159525 0.0
0.0767933 0.00166326 0.0
0 0 0.0
0.127198 0.0060607 0.0
0.193622 -0.0167872 0.0
0.183058 -0.0169961 0.0
0.210549 -0.0108348 0.0
0.20263 -0.0144657 0.0
0.213968 -0.00599212 0.0
0.217915 -0.000684472 0.0
0.217287 0.00478159 0.0
0.210959 0.0096482 0.0
0.20354 0.0137511 0.0
0.181685 0.0165058 0.0
0.17097 0.0136952 0.0
0.192882 0.015895 0.0
0 0 0.0
0.138186 -0.00393205 0.0
0.0836943 -0.00108231 0.0
0.175865 -0.0121289 0.0
0.164632 -0.00779983 0.0
0.157047 0.00968501 0.0
0 0 0.0
0.07961 0.00126157 0.0
0.132394 0.00474521 0.0
0.192889 -0.0152142 0.0
0.184796 -0.0141199 0.0
0.207192 -0.0102785 0.0
0.19994 -0.0129851 0.0
0.210236 -0.00570971 0.0
0.2126 -0.000773303 0.0
0.213252 0.00453092 0.0
0.173734 0.0117511 0.0
0.192001 0.0142742 0.0
0.206665 0.00878374 0.0
0.200994 0.0127923 0.0
0.182863 0.0142927 0.0
0 0 0.0
0.0852663 -0.000798101 0.0
0.141409 -0.00293493 0.0
0.179187 -0.0096811 0.0
0.168547 -0.00597476 0.0
0.136141 0.00354168 0.0
0.162238 0.00737229 0.0
0 0 0.0
0.0819424 0.000874946 0.0
0.192495 -0.0128339 0.0
0.186492 -0.0114808 0.0
0.203513 -0.00906618 0.0
0.1979 -0.011033 0.0
0.206719 -0.00528315 0.0
0.207723 -0.000909041 0.0
0.206373 0.00348861 0.0
0.176899 0.00909994 0.0
0.202894 0.00733702 0.0
0.191439 0.0121672 0.0
0.197613 0.0101196 0.0
0.18466 0.0108315 0.0
0 0 0.0
0.143984 -0.00204608 0.0
0.0866749 -0.000531244 0.0
0.182524 -0.00699525 0.0
0.171612 -0.00444156 0.0
0.138806 0.00253434 0.0
0.166 0.00540762 0.0
0 0 0.0
0.0832489 0.000653063 0.0
0.18803 -0.00897023 0.0
0.192393 -0.010342 0.0
0.200553 -0.00763103 0.0
0.202936 -0.00461033 0.0
0.196397 -0.00895272 0.0
0.203654 -0.00105539 0.0
0.202604 0.0025127 0.0
0.199859 0.00562579 0.0
0.201157 -0.00268984 0.0
0.179679 0.00660537 0.0
0.19586 0.00775372 0.0
0.191098 0.00860513 0.0
0.185748 0.00870964 0.0
0 0 0.0
0.145577 -0.00152381 0.0
0.0875811 -0.000417349 0.0
0.184405 -0.00554887 0.0
0.173977 -0.00325546 0.0
0.140925 0.00161331 0.0
0.168514 0.00391571 0.0
0 0 0.0
0.0842357 0.000376844 0.0
0.189402 -0.00683816 0.0
0.192541 -0.00807103 0.0
0.198279 -0.0062435 0.0
0.195375 -0.00709184 0.0
0.198888 -0.00371266 0.0
0.200873 0.000315159 0.0
0.199227 0.00307075 0.0
0.196443 0.00518276 0.0
0.199122 -0.00134777 0.0
0.181817 0.00443206 0.0
0.19294 0.00630609 0.0
0.190107 0.00622001 0.0
0.187253 0.00551669 0.0
0 0 0.0
0.146863 -0.00114267 0.0
0.0882252 -0.00031155 0.0
0.186213 -0.00415184 0.0
0.175752 -0.00243204 0.0
0.170979 0.00227938 0.0
0.142336 0.000895419 0.0
0 0 0.0
0.0849197 0.000148486 0.0
0.190547 -0.00520456 0.0
0.192761 -0.00622937 0.0
0.196966 -0.0032611 0.0
0.194713 -0.00560311 0.0
0.19666 -0.00507031 0.0
0.198248 0.000985727 0.0
0.196413 0.00290609 0.0
0.193904 0.00412738 0.0
0.197035 -0.00157018 0.0
0.183431 0.00270675 0.0
0.191067 0.0044616 0.0
0.188188 0.00345483 0.0
0 0 0.0
0.0886439 -0.000270092 0.0
0.147864 -0.000918429 0.0
0.176901 -0.00197684 0.0
0.19146 -0.00406515 0.0
0.187621 -0.00319978 0.0
0.172392 0.00120625 0.0
0.143167 0.000390075 0.0
0.0850631 5.26294e-05 0.0
0 0 0.0
0.194374 -0.00469533 0.0
0.193048 -0.00488796 0.0
0.195899 -0.0030422 0.0
0.195532 -0.00422062 0.0
0.193141 0.00234747 0.0
0.196329 0.000100828 0.0
0.194961 0.00147896 0.0
0.195569 -0.00183089 0.0
0.188832 0.00184352 0.0
0.184652 0.00115838 0.0
0.191074 0.00210396 0.0
0 0 0.0
0.0891671 -0.000247099 0.0
0.148685 -0.00082541 0.0
0.177954 -0.00165171 0.0
0.192064 -0.00349699 0.0
0.188923 -0.00256532 0.0
0.173214 0.000430332 0.0
0.143612 -8.17784e-06 0.0
0.0850889 -4.64157e-05 0.0
0 0 0.0
0.173739 -0.000139591 0.0
0.194168 -0.00405565 0.0
0.193413 -0.00382954 0.0
0.194567 -0.00355227 0.0
0.195096 -0.00293015 0.0
0.192436 0.000511364 0.0
0.193935 0.000310163 0.0
0.194975 -0.000663135 0.0
0.194548 -0.0021291 0.0
0.189263 0.00062624 0.0
0.185302 0.000243654 0.0
0.191063 0.000753745 0.0
0 0 0.0
0.0896237 -0.000238225 0.0
0.149386 -0.000835203 0.0
0.178807 -0.00155873 0.0
0.192708 -0.00305779 0.0
0.189761 -0.00234932 0.0
0.0848723 -0.000117416 0.0
0.143717 -0.000265279 0.0
0 0 0.0
0.173841 -0.000492336 0.0
0.194065 -0.00363206 0.0
0.193715 -0.00344579 0.0
0.194194 -0.00340054 0.0
0.194373 -0.00294603 0.0
0.192114 -0.000344292 0.0
0.193197 -0.000633739 0.0
0.193851 -0.00247831 0.0
0.193682 -0.00159918 0.0
0.189407 -7.67548e-05 0.0
0.185588 -0.00043025 0.0
0.190989 -0.000275486 0.0
0 0 0.0
0.0901552 -0.000276808 0.0
0.150012 -0.000921076 0.0
0.179638 -0.00161346 0.0
0.19338 -0.0029133 0.0
0.194003 -0.00336037 0.0
0.190461 -0.00235875 0.0
0.0847232 -0.000179134 0.0
0.143551 -0.00045366 0.0
0 0 0.0
0.173813 -0.000811508 0.0
0.194063 -0.00349892 0.0
0.194007 -0.00344533 0.0
0.193897 -0.00311508 0.0
0.193466 -0.00277648 0.0
0.191836 -0.0010519 0.0
0.192647 -0.00141706 0.0
0.193102 -0.00217318 0.0
0.185703 -0.000946551 0.0
0.189475 -0.000816789 0.0
0.190855 -0.00107464 0.0
0 0 0.0
0.0906849 -0.000373822 0.0
0.150779 -0.00106463 0.0
0.180382 -0.00181181 0.0
0.193769 -0.00301226 0.0
0.19429 -0.00349313 0.0
0.191118 -0.00252892 0.0
0.0844141 -0.000235886 0.0
0.143284 -0.00059682 0.0
0 0 0.0
0.185558 -0.00127462 0.0
0.142836 -0.00070533 0.0
0.173504 -0.00109969 0.0
0.194151 -0.00370272 0.0
0.193891 -0.00359451 0.0
0.193475 -0.00359264 0.0
0.193176 -0.00310249 0.0
0.192753 -0.0026062 0.0
0.191528 -0.00176596 0.0
0.192073 -0.00234188 0.0
0.189348 -0.00152191 0.0
0.190703 -0.00164069 0.0
0.194256 -0.00398677 0.0
0 0 0.0
0.0913444 -0.000440098 0.0
0.181173 -0.00210158 0.0
0.151611 -0.00128066 0.0
0.194605 -0.00384805 0.0
0.19436 -0.0033897 0.0
0.191735 -0.00285555 0.0
0.0840682 -0.000264352 0.0
0 0 0.0
0.18921 -0.00188583 0.0
0.185356 -0.00163277 0.0
0.173193 -0.00132643 0.0
0.0834807 -0.000259399 0.0
0.142401 -0.000819016 0.0
0.19383 -0.00396034 0.0
0.193328 -0.00395683 0.0
0.192858 -0.00360277 0.0
0.192665 -0.00403572 0.0
0.192457 -0.00303945 0.0
0.191213 -0.00239412 0.0
0.191709 -0.00294928 0.0
0.190479 -0.00212666 0.0
0.194353 -0.00439037 0.0
0.0920543 -0.000539586 0.0
0 0 0.0
0.181832 -0.00241629 0.0
0.152526 -0.00153943 0.0
0.194914 -0.00437201 0.0
0.194735 -0.00375579 0.0
0.192408 -0.00332037 0.0
0 0 0.0
0.188894 -0.00231795 0.0
0.184872 -0.00201885 0.0
0.172699 -0.00149772 0.0
0.0830634 -0.00029912 0.0
0.14177 -0.000928111 0.0
0.193795 -0.0047247 0.0
0.193213 -0.00438242 0.0
0.192473 -0.00450572 0.0
0.191986 -0.00388068 0.0
0.190881 -0.00297191 0.0
0.191365 -0.00355141 0.0
0.190067 -0.00281033 0.0
0.194528 -0.00505072 0.0
0 0 0.0
0.0930908 -0.000646345 0.0
0.182737 -0.00290083 0.0
0.153539 -0.00184335 0.0
0.193087 -0.00392695 0.0
0.195253 -0.0050786 0.0
0.19537 -0.00454213 0.0
0 0 0.0
0 0 0.0
0.188486 -0.00274147 0.0
0.184451 -0.00234535 0.0
0.172171 -0.00170696 0.0
0.141082 -0.00104082 0.0
0.0825186 -0.000353094 0.0
0.19379 -0.00545118 0.0
0.193061 -0.00505676 0.0
0.191069 -0.00404459 0.0
0.192221 -0.00521502 0.0
0.191651 -0.0045407 0.0
0.190501 -0.00354861 0.0
0.189647 -0.00331708 0.0
0.193776 -0.00615188 0.0
0.194663 -0.0058824 0.0
0.0943574 -0.000788972 0.0
0.154805 -0.00222815 0.0
0.183818 -0.00352102 0.0
0.193767 -0.00453668 0.0
0.195604 -0.00595424 0.0
0.195784 -0.00519632 0.0
0 0 0.0
0 0 0.0
0.183916 -0.00259644 0.0
0.187823 -0.00326135 0.0
0.140329 -0.00114432 0.0
0.171337 -0.00195416 0.0
0.0818744 -0.000387468 0.0
0.192842 -0.00622376 0.0
0.191921 -0.0060381 0.0
0.189164 -0.00383791 0.0
0.190741 -0.0045591 0.0
0.191378 -0.00509927 0.0
0.189893 -0.00434899 0.0
0.193749 -0.00692558 0.0
0.194881 -0.00729829 0.0
0.195953 -0.00705614 0.0
0.0958372 -0.00101916 0.0
0.156445 -0.00274522 0.0
0.185211 -0.00447322 0.0
0.194615 -0.00543417 0.0
0.196521 -0.00649207 0.0
0 0 0.0
0 0 0.0
0.183094 -0.00299035 0.0
0.187215 -0.00371027 0.0
0.13942 -0.00127901 0.0
0.17051 -0.00218134 0.0
0.0811645 -0.000419359 0.0
0.191071 -0.00570227 0.0
0.191567 -0.0069546 0.0
0.192597 -0.00723809 0.0
0.188583 -0.00437751 0.0
0.190286 -0.00525915 0.0
0.189349 -0.00500052 0.0
0.186497 -0.00417793 0.0
0.193591 -0.00858294 0.0
0 0 0.0
0.194934 -0.00863588 0.0
0.197166 -0.00780407 0.0
0.196276 -0.00836058 0.0
0.0976247 -0.00126729 0.0
0.186559 -0.00534824 0.0
0.158649 -0.00354307 0.0
0.195801 -0.00690876 0.0
0 0 0.0
0 0 0.0
0 0 0.0
0 0 0.0
0 0 0.0
0.0804503 -0.000450771 0.0
0.16965 -0.00242349 0.0
0.182309 -0.00334333 0.0
0.13858 -0.00138833 0.0
0.190603 -0.00654061 0.0
0.191113 -0.00800252 0.0
0.192301 -0.0083916 0.0
0.188822 -0.00554847 0.0
0.187885 -0.004953 0.0
0.189492 -0.00633872 0.0
0.187223 -0.00546698 0.0
0.18584 -0.00453608 0.0
0.193333 -0.0100323 0.0
0.194937 -0.0101406 0.0
0 0 0.0
-0.000485325 0.000274478 0.0
0 0 0.0
-0.000762215 0.00836243 0.0
0.196578 -0.00997425 0.0
0.197672 -0.00898257 0.0
0.100072 -0.00163219 0.0
0.188261 -0.00659322 0.0
0.161109 -0.00451212 0.0
0.196979 -0.00851434 0.0
0 0 0.0
0 0 0.0
0 0 0.0
-0.000627694 0.00617482 0.0
-0.000511346 0.00165596 0.0
-0.00141361 0.00147155 0.0
0 0 0.0
0.0796094 -0.000489602 0.0
0.16874 -0.00262466 0.0
0.181373 -0.00371067 0.0
0.137361 -0.00152913 0.0
0.190044 -0.0074851 0.0
0.190536 -0.0091751 0.0
0.191872 -0.00969557 0.0
0.188218 -0.00614306 0.0
0.18894 -0.0070318 0.0
0.18645 -0.00599617 0.0
0.184625 -0.00516782 0.0
0.192962 -0.0116604 0.0
0.194357 -0.0117663 0.0
0.195808 -0.0116753 0.0
0 0 0.0
-0.0016991 0.00056003 0.0
0 0 0.0
0 0 0.0
-0.00255059 0.014074 0.0
-0.00256969 0.0110436 0.0
0.197187 -0.0114815 0.0
0.198306 -0.0109101 0.0
0.163768 -0.00564842 0.0
0.102937 -0.00213939 0.0
0.190288 -0.00824723 0.0
0.198164 -0.0105278 0.0
0 0 0.0
-0.00173932 0.00521982 0.0
-0.00215656 0.00798926 0.0
-0.00218094 0.00352353 0.0
-0.00350832 0.00222402 0.0
0 0 0.0
0.0787144 -0.000530307 0.0
0.167602 -0.00287071 0.0
0.180288 -0.00408016 0.0
0.136173 -0.00166114 0.0
0.189352 -0.00851807 0.0
0.189806 -0.0104592 0.0
0.191281 -0.011167 0.0
0.187062 -0.00718872 0.0
0.188303 -0.00775118 0.0
0.185413 -0.00666055 0.0
0.17917 -0.00447807 0.0
0.183532 -0.00569833 0.0
0.192505 -0.0131209 0.0
0.194602 -0.013314 0.0
0.196818 -0.0135172 0.0
0 0 0.0
-0.00377245 0.000749991 0.0
0 0 0.0
0 0 0.0
0 0 0.0
0 0 0.0
-0.00484067 0.0102065 0.0
-0.00090122 0.0126364 0.0
-0.00273235 0.016747 0.0
-0.00562973 0.0177961 0.0
-0.00477409 0.0141036 0.0
0 0 0.0
-0.000556001 0.0203762 0.0
0.198955 -0.0139641 0.0
0.199199 -0.0125226 0.0
0 0 0.0
0.10709 -0.00295858 0.0
0.167468 -0.00723118 0.0
0.19308 -0.0110109 0.0
0 0 0.0
0 0 0.0
-0.00416706 0.0071163 0.0
-0.00479428 0.00461847 0.0
-0.00611579 0.00248569 0.0
0 0 0.0
0.0776862 -0.000572477 0.0
0.166153 -0.00316261 0.0
0.134835 -0.00179153 0.0
0.178058 -0.0047757 0.0
0.188506 -0.00964201 0.0
0.189129 -0.0115031 0.0
0.1905 -0.0128164 0.0
0.186198 -0.00786082 0.0
0.18737 -0.00871202 0.0
0.184238 -0.00733956 0.0
0.182558 -0.00608857 0.0
0.195488 -0.014978 0.0
0.191882 -0.0147265 0.0
0.193893 -0.0164378 0.0
0.19659 -0.0169455 0.0
0.1993 -0.0171593 0.0
0 0 0.0
-0.00532358 0.000698445 0.0
-0.000808847 0.0196571 0.0
-0.00312768 0.027928 0.0
-0.00100773 0.015481 0.0
-0.00700215 0.0119184 0.0
-0.00893097 0.00872312 0.0
-0.00351981 0.0217877 0.0