# vtk DataFile Version 3.0
Mesh NS-CD Problem
ASCII
DATASET UNSTRUCTURED_GRID
POINTS 10839 float
-2 0.3 0.0
-2 0.4 0.0
-2 0.35 0.0
-2 0.45 0.0
-2 0.5 0.0
-2 0.55 0.0
-2 0 0.0
-2 0.05 0.0
-2 0.85 0.0
-2 0.9 0.0
-2 0.1 0.0
-2 0.15 0.0
-2 0.25 0.0
-2 0.2 0.0
-1.96653 0.266667 0.0
-1.96524 0.415385 0.0
-1.96485 0.315 0.0
-1.96348 0.363636 0.0
-1.96414 0.464286 0.0
-2 0.6 0.0
-1.96538 0.584615 0.0
-1.96538 0.538462 0.0
-1.94979 0 0.0
-1.96653 0.0666666 0.0
-1.93306 0.0333333 0.0
-2 0.8 0.0
-2 0.75 0.0
-2 0.7 0.0
-2 0.65 0.0
-1.96249 0.7375 0.0
-1.96666 0.833333 0.0
-2 1 0.0
-2 0.95 0.0
-1.96249 0.8875 0.0
-1.96666 0.933333 0.0
-1.96234 0.1125 0.0
-1.96653 0.166667 0.0
-1.93724 0.225 0.0
-1.92971 0.28 0.0
-1.93048 0.380769 0.0
-1.93048 0.423077 0.0
-1.89958 0.3375 0.0
-1.9292 0.484203 0.0
-1.92117 0.530907 0.0
-1.96363 0.636364 0.0
-1.93076 0.576923 0.0
-1.89958 0 0.0
-1.88703 0.0375 0.0
-1.90963 0.08 0.0
-1.86611 0.0666666 0.0
-1.93749 0.775 0.0
-1.93635 0.672727 0.0
-1.92999 0.72 0.0
-1.93332 0.866667 0.0
-1.92856 0.821429 0.0
-1.94999 1 0.0
-1.92499 0.9625 0.0
-1.92499 0.925 0.0
-1.89998 0.9 0.0
-1.89958 0.125 0.0
-1.92827 0.178571 0.0
-1.89958 0.233333 0.0
-1.89045 0.290909 0.0
-1.86096 0.311538 0.0
-1.89241 0.392857 0.0
-1.89334 0.448489 0.0
-1.85655 0.357143 0.0
-1.89614 0.653846 0.0
-1.89427 0.504121 0.0
-1.8952 0.559753 0.0
-1.89614 0.615385 0.0
-1.84937 0 0.0
-1.83264 0.0333333 0.0
-1.85655 0.107143 0.0
-1.81172 0.075 0.0
-1.89998 0.766667 0.0
-1.89089 0.709091 0.0
-1.87498 0.85 0.0
-1.85998 0.79 0.0
-1.88748 0.8125 0.0
-1.89998 1 0.0
-1.88748 0.9625 0.0
-1.86664 0.933333 0.0
-1.85712 0.892857 0.0
-1.87448 0.15 0.0
-1.86611 0.194444 0.0
-1.83264 0.133333 0.0
-1.83264 0.2625 0.0
-1.82068 0.321429 0.0
-1.85664 0.404762 0.0
-1.85674 0.452381 0.0
-1.85683 0.5 0.0
-1.81184 0.375 0.0
-1.85712 0.642857 0.0
-1.85693 0.547619 0.0
-1.85702 0.595238 0.0
-1.79917 0 0.0
-1.78482 0.0357143 0.0
-1.79917 0.116667 0.0
-1.76569 0.0666666 0.0
-1.85452 0.745455 0.0
-1.82689 0.692308 0.0
-1.81815 0.781818 0.0
-1.82497 0.825 0.0
-1.84997 1 0.0
-1.8333 0.958333 0.0
-1.81247 0.8875 0.0
-1.81247 0.925 0.0
-1.81742 0.218182 0.0
-1.82427 0.175 0.0
-1.77634 0.145455 0.0
-1.79144 0.242308 0.0
-1.78482 0.285714 0.0
-1.77469 0.332653 0.0
-1.81215 0.529762 0.0
-1.81194 0.422619 0.0
-1.81203 0.470238 0.0
-1.76714 0.392857 0.0
-1.81234 0.625 0.0
-1.79732 0.571429 0.0
-1.74896 0 0.0
-1.73222 0.0333333 0.0
-1.75398 0.105 0.0
-1.71883 0.07 0.0
-1.79227 0.730769 0.0
-1.78007 0.679121 0.0
-1.75765 0.769231 0.0
-1.78178 0.818182 0.0
-1.78996 0.86 0.0
-1.79996 1 0.0
-1.78568 0.964286 0.0
-1.76663 0.922222 0.0
-1.76569 0.1875 0.0
-1.73222 0.15 0.0
-1.74896 0.25 0.0
-1.73714 0.304762 0.0
-1.76743 0.537202 0.0
-1.72869 0.343878 0.0
-1.76732 0.485119 0.0
-1.76723 0.440476 0.0
-1.72243 0.410714 0.0
-1.76757 0.607143 0.0
-1.69875 0 0.0
-1.68369 0.035 0.0
-1.69875 0.1125 0.0
-1.66528 0.075 0.0
-1.74341 0.708974 0.0
-1.73324 0.665934 0.0
-1.70441 0.74478 0.0
-1.71423 0.785714 0.0
-1.72303 0.826923 0.0
-1.74541 0.854545 0.0
-1.74541 0.890909 0.0
-1.74996 1 0.0
-1.73745 0.9625 0.0
-1.71359 0.927273 0.0
-1.68716 0.153846 0.0
-1.7131 0.214286 0.0
-1.70725 0.275 0.0
-1.69712 0.321939 0.0
-1.72279 0.589286 0.0
-1.72261 0.5 0.0
-1.7227 0.544643 0.0
-1.6827 0.355102 0.0
-1.67773 0.428571 0.0
-1.70763 0.464286 0.0
-1.70369 0.62449 0.0
-1.64854 0 0.0
-1.63181 0.0375 0.0
-1.64137 0.142857 0.0
-1.61764 0.0769231 0.0
-1.69458 0.703846 0.0
-1.67471 0.657437 0.0
-1.66143 0.727637 0.0
-1.67125 0.768571 0.0
-1.67851 0.821429 0.0
-1.68841 0.861538 0.0
-1.70904 0.890909 0.0
-1.69995 1 0.0
-1.68176 0.963636 0.0
-1.67267 0.927273 0.0
-1.65427 0.187143 0.0
-1.66718 0.231429 0.0
-1.66554 0.3 0.0
-1.67802 0.571429 0.0
-1.67792 0.523809 0.0
-1.6367 0.366327 0.0
-1.63682 0.423469 0.0
-1.62568 0.502976 0.0
-1.6629 0.470238 0.0
-1.65254 0.618367 0.0
-1.6059 0.307143 0.0
-1.59833 0 0.0
-1.58288 0.0384615 0.0
-1.60563 0.169643 0.0
-1.58179 0.112271 0.0
-1.56964 0.0714286 0.0
-1.64574 0.690385 0.0
-1.62827 0.751429 0.0
-1.63371 0.791071 0.0
-1.64279 0.857143 0.0
-1.65378 0.896154 0.0
-1.64994 1 0.0
-1.6363 0.963636 0.0
-1.61916 0.930769 0.0
-1.61345 0.209107 0.0
-1.62126 0.248571 0.0
-1.56989 0.196429 0.0
-1.63324 0.553571 0.0
-1.58846 0.535714 0.0
-1.59408 0.361905 0.0
-1.59161 0.402211 0.0
-1.58832 0.464286 0.0
-1.61504 0.598581 0.0
-1.59683 0.64359 0.0
-1.57899 0.274107 0.0
-1.56176 0.322381 0.0
-1.54812 0 0.0
-1.53378 0.0357143 0.0
-1.54593 0.147619 0.0
-1.53385 0.0732143 0.0
-1.53393 0.110714 0.0
-1.58522 0.704286 0.0
-1.58709 0.745 0.0
-1.58896 0.785714 0.0
-1.60695 0.830357 0.0
-1.60707 0.892857 0.0
-1.59993 1 0.0
-1.58454 0.965385 0.0
-1.57135 0.928571 0.0
-1.55209 0.241071 0.0
-1.5291 0.198214 0.0
-1.56936 0.570918 0.0
-1.54369 0.517857 0.0
-1.5464 0.380952 0.0
-1.54564 0.427721 0.0
-1.54488 0.47449 0.0
-1.55026 0.606122 0.0
-1.54222 0.677143 0.0
-1.52943 0.282857 0.0
-1.52143 0.33619 0.0
-1.49792 0 0.0
-1.49802 0.05 0.0
-1.49822 0.15 0.0
-1.49312 0.1 0.0
-1.5423 0.717143 0.0
-1.54419 0.767857 0.0
-1.54727 0.819048 0.0
-1.57122 0.861905 0.0
-1.53553 0.914286 0.0
-1.54992 1 0.0
-1.53563 0.964286 0.0
-1.49842 0.25 0.0
-1.48831 0.2 0.0
-1.5214 0.558929 0.0
-1.49891 0.5 0.0
-1.49871 0.4 0.0
-1.47631 0.45 0.0
-1.49911 0.6 0.0
-1.49921 0.65 0.0
-1.49931 0.7 0.0
-1.48111 0.35 0.0
-1.48351 0.3 0.0
-1.44771 0 0.0
-1.44782 0.05 0.0
-1.44804 0.15 0.0
-1.44793 0.1 0.0
-1.49941 0.75 0.0
-1.49951 0.8 0.0
-1.49981 0.95 0.0
-1.49961 0.85 0.0
-1.49971 0.9 0.0
-1.49991 1 0.0
-1.44826 0.25 0.0
-1.43815 0.2 0.0
-1.47151 0.55 0.0
-1.44881 0.5 0.0
-1.44859 0.4 0.0
-1.42619 0.45 0.0
-1.44913 0.65 0.0
-1.44902 0.6 0.0
-1.44935 0.75 0.0
-1.44924 0.7 0.0
-1.43972 0.35 0.0
-1.43336 0.3 0.0
-1.3975 0 0.0
-1.39762 0.05 0.0
-1.39786 0.15 0.0
-1.39274 0.1 0.0
-1.44957 0.85 0.0
-1.44946 0.8 0.0
-1.4523 0.95 0.0
-1.44968 0.9 0.0
-1.4499 1 0.0
-1.3981 0.25 0.0
-1.38798 0.2 0.0
-1.42141 0.55 0.0
-1.3987 0.5 0.0
-1.39834 0.35 0.0
-1.37845 0.4 0.0
-1.37607 0.45 0.0
-1.40784 0.65 0.0
-1.39894 0.6 0.0
-1.41185 0.75 0.0
-1.39918 0.7 0.0
-1.38322 0.3 0.0
-1.34729 0 0.0
-1.34492 0.05 0.0
-1.34018 0.15 0.0
-1.34255 0.1 0.0
-1.40707 0.85 0.0
-1.39941 0.8 0.0
-1.39977 0.95 0.0
-1.39965 0.9 0.0
-1.39989 1 0.0
-1.33781 0.2 0.0
-1.33544 0.25 0.0
-1.37131 0.55 0.0
-1.34859 0.5 0.0
-1.33833 0.4 0.0
-1.3307 0.35 0.0
-1.32595 0.45 0.0
-1.34885 0.6 0.0
-1.36655 0.65 0.0
-1.36179 0.75 0.0
-1.34911 0.7 0.0
-1.33307 0.3 0.0
-1.29708 0 0.0
-1.29722 0.05 0.0
-1.2975 0.15 0.0
-1.29236 0.1 0.0
-1.35703 0.85 0.0
-1.34937 0.8 0.0
-1.34988 1 0.0
-1.34962 0.9 0.0
-1.35226 0.95 0.0
-1.28528 0.25 0.0
-1.28764 0.2 0.0
-1.28931 0.35 0.0
-1.32121 0.55 0.0
-1.29848 0.5 0.0
-1.28709 0.45 0.0
-1.2982 0.4 0.0
-1.29876 0.6 0.0
-1.31647 0.65 0.0
-1.29918 0.75 0.0
-1.29904 0.7 0.0
-1.28292 0.3 0.0
-1.24687 0 0.0
-1.24702 0.05 0.0
-1.24717 0.1 0.0
-1.24732 0.15 0.0
-1.29946 0.85 0.0
-1.29932 0.8 0.0
-1.29987 1 0.0
-1.29974 0.95 0.0
-1.30462 0.9 0.0
-1.24762 0.25 0.0
-1.23747 0.2 0.0
-1.24792 0.35 0.0
-1.22807 0.4 0.0
-1.27111 0.55 0.0
-1.24837 0.5 0.0
-1.24822 0.45 0.0
-1.24867 0.6 0.0
-1.26639 0.65 0.0
-1.26167 0.75 0.0
-1.24897 0.7 0.0
-1.23277 0.3 0.0
-1.19667 0 0.0
-1.19683 0.05 0.0
-1.18964 0.15 0.0
-1.19198 0.1 0.0
-1.25695 0.85 0.0
-1.24927 0.8 0.0
-1.25223 0.95 0.0
-1.24987 1 0.0
-1.24957 0.9 0.0
-1.1873 0.2 0.0
-1.18496 0.25 0.0
-1.18028 0.35 0.0
-1.17794 0.4 0.0
-1.1981 0.45 0.0
-1.19842 0.55 0.0
-1.19826 0.5 0.0
-1.19858 0.6 0.0
-1.19874 0.65 0.0
-1.19906 0.75 0.0
-1.1989 0.7 0.0
-1.18262 0.3 0.0
-1.14646 0 0.0
-1.14663 0.05 0.0
-1.1418 0.1 0.0
-1.13713 0.2 0.0
-1.14697 0.15 0.0
-1.20691 0.85 0.0
-1.20926 0.8 0.0
-1.20221 0.95 0.0
-1.19986 1 0.0
-1.20456 0.9 0.0
-1.13997 0.3 0.0
-1.14731 0.25 0.0
-1.13781 0.4 0.0
-1.13014 0.35 0.0
-1.12548 0.45 0.0
-1.14815 0.5 0.0
-1.15962 0.55 0.0
-1.14849 0.6 0.0
-1.15745 0.65 0.0
-1.16155 0.75 0.0
-1.14917 0.8 0.0
-1.14883 0.7 0.0
-1.09625 0 0.0
-1.09661 0.1 0.0
-1.09393 0.05 0.0
-1.09697 0.2 0.0
-1.08929 0.15 0.0
-1.15687 0.85 0.0
-1.14985 1 0.0
-1.15219 0.95 0.0
-1.14951 0.9 0.0
-1.09733 0.3 0.0
-1.08465 0.25 0.0
-1.09769 0.4 0.0
-1.08 0.35 0.0
-1.08661 0.45 0.0
-1.09804 0.5 0.0
-1.12082 0.55 0.0
-1.10916 0.8 0.0
-1.10629 0.7 0.0
-1.0984 0.6 0.0
-1.11616 0.65 0.0
-1.11149 0.75 0.0
-1.04604 0 0.0
-1.04623 0.05 0.0
-1.04642 0.1 0.0
-1.0468 0.2 0.0
-1.03911 0.15 0.0
-1.09948 0.9 0.0
-1.0993 0.85 0.0
-1.09984 1 0.0
-1.09966 0.95 0.0
-1.04718 0.3 0.0
-1.03449 0.25 0.0
-1.04756 0.4 0.0
-1.02986 0.35 0.0
-1.04775 0.45 0.0
-1.04794 0.5 0.0
-1.04813 0.55 0.0
-1.05911 0.8 0.0
-1.04831 0.6 0.0
-1.06376 0.7 0.0
-1.0485 0.65 0.0
-1.04888 0.75 0.0
-0.995833 0 0.0
-0.991231 0.1 0.0
-0.996033 0.05 0.0
-0.986629 0.2 0.0
-0.98893 0.15 0.0
-1.05447 0.9 0.0
-1.04926 0.85 0.0
-1.04983 1 0.0
-1.04964 0.95 0.0
-0.984328 0.25 0.0
-0.99703 0.3 0.0
-0.997429 0.4 0.0
-0.997628 0.45 0.0
-0.979726 0.35 0.0
-0.997827 0.5 0.0
-0.998027 0.55 0.0
-0.998226 0.6 0.0
-0.961416 0.475 0.0
-1.00907 0.8 0.0
-0.998426 0.65 0.0
-0.998625 0.7 0.0
-1.01138 0.75 0.0
-0.945625 0 0.0
-0.946044 0.1 0.0
-0.943334 0.05 0.0
-0.946463 0.2 0.0
-0.938752 0.15 0.0
-1.00444 0.9 0.0
-1.00675 0.85 0.0
-0.999821 1 0.0
-1.00213 0.95 0.0
-0.93417 0.25 0.0
-0.946881 0.3 0.0
-0.9473 0.4 0.0
-0.929588 0.35 0.0
-0.925005 0.45 0.0
-0.960371 0.525 0.0
-0.959325 0.575 0.0
-0.958279 0.625 0.0
-0.922714 0.5 0.0
-0.959017 0.8 0.0
-0.957233 0.675 0.0
-0.952999 0.7125 0.0
-0.948766 0.75 0.0
-0.895417 0 0.0
-0.895855 0.1 0.0
-0.893136 0.05 0.0
-0.896294 0.2 0.0
-0.888573 0.15 0.0
-0.949184 0.85 0.0
-0.954415 0.9 0.0
-0.949812 1 0.0
-0.949603 0.95 0.0
-0.884011 0.25 0.0
-0.896733 0.3 0.0
-0.874887 0.45 0.0
-0.879449 0.35 0.0
-0.897171 0.4 0.0
-0.920423 0.55 0.0
-0.918132 0.6 0.0
-0.915841 0.65 0.0
-0.872606 0.5 0.0
-0.908968 0.8 0.0
-0.91355 0.7 0.0
-0.898707 0.75 0.0
-0.845208 0 0.0
-0.845438 0.05 0.0
-0.845667 0.1 0.0
-0.845896 0.15 0.0
-0.833853 0.25 0.0
-0.846126 0.2 0.0
-0.899146 0.85 0.0
-0.904386 0.9 0.0
-0.899584 0.95 0.0
-0.899804 1 0.0
-0.838062 0.35 0.0
[...]
POINT_DATA 10839
VECTORS Velocity float
0.21 0 0.0
0.24 0 0.0
0.2275 0 0.0
0.2475 0 0.0
0.25 0 0.0
0.2475 0 0.0
0 0 0.0
0.0475 0 0.0
0.1275 0 0.0
0.09 0 0.0
0.09 0 0.0
0.1275 0 0.0
0.1875 0 0.0
0.16 0 0.0
0.195557 -2.32429e-05 0.0
0.242841 -3.1528e-05 0.0
0.215776 -2.75972e-05 0.0
0.231406 -3.10538e-05 0.0
0.248725 -3.35314e-05 0.0
0.24 0 0.0
0.24284 -3.14139e-05 0.0
0.24852 -3.22799e-05 0.0
0 0 0.0
0.0622239 -4.1516e-06 0.0
0.0322269 -2.74416e-06 0.0
0.16 0 0.0
0.1875 0 0.0
0.21 0 0.0
0.2275 0 0.0
0.193592 -2.60222e-05 0.0
0.138887 -1.45798e-05 0.0
0 0 0.0
0.0475 0 0.0
0.0998416 -1.02039e-05 0.0
0.0622206 -4.20187e-06 0.0
0.0998461 -1.06605e-05 0.0
0.138891 -1.4724e-05 0.0
0.17438 -3.66165e-05 0.0
0.201605 -4.99767e-05 0.0
0.235787 -6.0802e-05 0.0
0.244085 -6.35535e-05 0.0
0.223601 -8.14e-05 0.0
0.249751 -6.63242e-05 0.0
0.249044 -7.38207e-05 0.0
0.231404 -3.14873e-05 0.0
0.244081 -6.27157e-05 0.0
0 0 0.0
0.0361078 -5.25582e-06 0.0
0.0736123 -1.46274e-05 0.0
0.0622484 -1.59702e-05 0.0
0.17437 -3.60039e-05 0.0
0.220162 -4.97761e-05 0.0
0.201595 -4.99121e-05 0.0
0.115549 -2.17758e-05 0.0
0.146676 -3.35349e-05 0.0
0 0 0.0
0.0360875 -3.57061e-06 0.0
0.0693663 -1.14911e-05 0.0
0.089984 -2.26119e-05 0.0
0.109391 -3.04936e-05 0.0
0.146691 -3.2942e-05 0.0
0.178901 -6.11425e-05 0.0
0.206293 -7.96864e-05 0.0
0.2145 -0.000107044 0.0
0.238526 -9.49815e-05 0.0
0.24735 -9.87919e-05 0.0
0.229606 -0.000120662 0.0
0.226324 -8.52377e-05 0.0
0.249983 -9.92016e-05 0.0
0.246427 -9.64854e-05 0.0
0.23668 -9.0874e-05 0.0
0 0 0.0
0.0322499 -5.91083e-06 0.0
0.0956954 -3.45111e-05 0.0
0.0694274 -2.59694e-05 0.0
0.178877 -6.00405e-05 0.0
0.206269 -8.00196e-05 0.0
0.127477 -4.64424e-05 0.0
0.165874 -7.57432e-05 0.0
0.152326 -5.45071e-05 0.0
0 0 0.0
0.0360798 -5.10052e-06 0.0
0.0621965 -1.58253e-05 0.0
0.0956313 -3.51637e-05 0.0
0.127524 -4.69702e-05 0.0
0.15666 -6.80022e-05 0.0
0.115599 -5.37559e-05 0.0
0.193625 -0.000111501 0.0
0.21814 -0.000140734 0.0
0.240939 -0.000128409 0.0
0.247737 -0.000133035 0.0
0.25 -0.000134378 0.0
0.234396 -0.000162582 0.0
0.229577 -0.000118599 0.0
0.247728 -0.000132567 0.0
0.24092 -0.000127863 0.0
0 0 0.0
0.0344859 -8.14412e-06 0.0
0.103118 -5.26973e-05 0.0
0.0623 -2.62546e-05 0.0
0.189728 -9.45951e-05 0.0
0.21299 -0.000131518 0.0
0.170536 -0.000102212 0.0
0.144332 -7.60969e-05 0.0
0 0 0.0
0.0398989 -8.71953e-06 0.0
0.0997888 -4.79594e-05 0.0
0.0693232 -2.55822e-05 0.0
0.170622 -0.000102776 0.0
0.144419 -7.80226e-05 0.0
0.124373 -7.88976e-05 0.0
0.183647 -0.000129561 0.0
0.204129 -0.000154853 0.0
0.222036 -0.00018198 0.0
0.249109 -0.000175703 0.0
0.244025 -0.000171383 0.0
0.249119 -0.000175894 0.0
0.238549 -0.000206259 0.0
0.234354 -0.000160989 0.0
0.244883 -0.00018488 0.0
0 0 0.0
0.0322897 -8.6035e-06 0.0
0.0940698 -5.52693e-05 0.0
0.0652125 -3.31012e-05 0.0
0.196699 -0.000140754 0.0
0.217874 -0.000172523 0.0
0.177442 -0.000142539 0.0
0.148694 -9.99994e-05 0.0
0.120333 -7.03225e-05 0.0
0 0 0.0
0.034392 -8.26453e-06 0.0
0.0716477 -3.33002e-05 0.0
0.15242 -0.000112513 0.0
0.127609 -9.76588e-05 0.0
0.187574 -0.000160171 0.0
0.211947 -0.000199121 0.0
0.248606 -0.000217271 0.0
0.225681 -0.000225263 0.0
0.249782 -0.000219105 0.0
0.246472 -0.000215666 0.0
0.242062 -0.000251882 0.0
0.238492 -0.000204759 0.0
0 0 0.0
0.0338708 -1.07589e-05 0.0
0.0999858 -7.35245e-05 0.0
0.0695373 -4.39768e-05 0.0
0.206265 -0.000185118 0.0
0.222408 -0.000215475 0.0
0.189982 -0.000191757 0.0
0.168261 -0.000155307 0.0
0.14301 -0.000119567 0.0
0.1242 -8.86645e-05 0.0
0.0970893 -5.98319e-05 0.0
0 0 0.0
0.0360231 -1.04806e-05 0.0
0.0673203 -3.55906e-05 0.0
0.130326 -0.000117708 0.0
0.168476 -0.000157319 0.0
0.199467 -0.000204928 0.0
0.218373 -0.000240114 0.0
0.241994 -0.000251221 0.0
0.249999 -0.000262803 0.0
0.247989 -0.000259418 0.0
0.229076 -0.000270497 0.0
0.244934 -0.000299017 0.0
0.248739 -0.000275819 0.0
0.234448 -0.000256795 0.0
0 0 0.0
0.0362272 -1.38524e-05 0.0
0.122648 -0.000120363 0.0
0.0712185 -5.19235e-05 0.0
0.208356 -0.000225274 0.0
0.225131 -0.000267504 0.0
0.198057 -0.000233182 0.0
0.177735 -0.000193581 0.0
0.146535 -0.000143347 0.0
0.119141 -0.000100673 0.0
0.0970584 -6.76719e-05 0.0
0 0 0.0
0.0349422 -1.17054e-05 0.0
0.0672851 -3.99615e-05 0.0
0.152291 -0.000164108 0.0
0.178009 -0.000200365 0.0
0.210109 -0.000253097 0.0
0.24486 -0.000297284 0.0
0.24942 -0.000305919 0.0
0.232219 -0.000317504 0.0
0.244192 -0.000339664 0.0
0.249987 -0.000360746 0.0
0.24913 -0.000321852 0.0
0.235917 -0.000306092 0.0
0.212953 -0.000308605 0.0
0 0 0.0
0.0371541 -1.62926e-05 0.0
0.141097 -0.000167234 0.0
0.099942 -0.000101312 0.0
0.0665862 -5.05252e-05 0.0
0.213637 -0.000272683 0.0
0.186619 -0.000237288 0.0
0.165097 -0.000193605 0.0
0.122253 -0.000120224 0.0
0.0928768 -7.40009e-05 0.0
0 0 0.0
0.0349138 -1.30355e-05 0.0
0.0642368 -4.23728e-05 0.0
0.165585 -0.000209485 0.0
0.186957 -0.000246139 0.0
0.158108 -0.000218975 0.0
0.247092 -0.00034638 0.0
0.248691 -0.000397197 0.0
0.231043 -0.000356405 0.0
0.240518 -0.000379528 0.0
0.248752 -0.000398729 0.0
0.240207 -0.000351122 0.0
0.229264 -0.0003438 0.0
0.199169 -0.000302312 0.0
0.218622 -0.0003609 0.0
0 0 0.0
0.0346404 -1.59175e-05 0.0
0.126151 -0.000162194 0.0
0.0681617 -5.68366e-05 0.0
0.0987997 -0.00010991 0.0
0.208095 -0.000309823 0.0
0.189775 -0.000270572 0.0
0.168143 -0.000225219 0.0
0.140636 -0.000164167 0.0
0.0954237 -8.77741e-05 0.0
0 0 0.0
0.0332592 -1.3325e-05 0.0
0.0660698 -5.04371e-05 0.0
0.183208 -0.000285656 0.0
0.159244 -0.00024494 0.0
0.2449 -0.000407886 0.0
0.249657 -0.00044871 0.0
0.23595 -0.000416552 0.0
0.244849 -0.000438725 0.0
0.249372 -0.000449571 0.0
0.238626 -0.000411309 0.0
0.218434 -0.000370549 0.0
0.203089 -0.0003529 0.0
0.223356 -0.00041283 0.0
0 0 0.0
0.0477914 -3.13825e-05 0.0
0.127897 -0.000184291 0.0
0.0904004 -0.000102642 0.0
0.202625 -0.000331464 0.0
0.177988 -0.000273543 0.0
0.14791 -0.00020672 0.0
0.11874 -0.000136645 0.0
0.0780463 -7.42426e-05 0.0
0 0 0.0
0.0342394 -1.57516e-05 0.0
0.187813 -0.000338679 0.0
0.160379 -0.000272506 0.0
0.246452 -0.000464525 0.0
0.249993 -0.000502934 0.0
0.240126 -0.000480565 0.0
0.247564 -0.000526776 0.0
0.239865 -0.000469352 0.0
0.227305 -0.000433231 0.0
0.209749 -0.000385272 0.0
0.227707 -0.000469147 0.0
0.210271 -0.00041517 0.0
0 0 0.0
0.0478502 -3.43201e-05 0.0
0.127987 -0.000204533 0.0
0.0904771 -0.000111485 0.0
0.187196 -0.000327183 0.0
0.159648 -0.000258387 0.0
0.0472116 -3.15807e-05 0.0
0.127114 -0.000180905 0.0
0.0896145 -0.000101983 0.0
0 0 0.0
0.187886 -0.000381754 0.0
0.160466 -0.000305105 0.0
0.247418 -0.000525199 0.0
0.249988 -0.000565562 0.0
0.240153 -0.000543072 0.0
0.247575 -0.000592873 0.0
0.227261 -0.000483968 0.0
0.239833 -0.000525129 0.0
0.187129 -0.000365166 0.0
0.209693 -0.000430034 0.0
0.227743 -0.000516765 0.0
0.210333 -0.000469133 0.0
0 0 0.0
0.0479132 -3.62026e-05 0.0
0.12809 -0.000225583 0.0
0.0905806 -0.000121934 0.0
0.127029 -0.000203793 0.0
0.159571 -0.00028921 0.0
0.0471544 -3.58315e-05 0.0
0.0895313 -0.00011488 0.0
0 0 0.0
0.187969 -0.000428834 0.0
0.160565 -0.000340739 0.0
0.247397 -0.000586697 0.0
0.249982 -0.000632575 0.0
0.227783 -0.000569995 0.0
0.240195 -0.000639595 0.0
0.247586 -0.000665277 0.0
0.227219 -0.00052573 0.0
0.239796 -0.000583683 0.0
0.187073 -0.000393681 0.0
0.209629 -0.000476201 0.0
0.210402 -0.000528919 0.0
0 0 0.0
0.0479848 -3.80244e-05 0.0
0.128225 -0.00025112 0.0
0.0906858 -0.000130549 0.0
0.12695 -0.000224099 0.0
0.159486 -0.000321419 0.0
0.047083 -4.13994e-05 0.0
0.0894386 -0.000129839 0.0
0 0 0.0
0.16068 -0.00037983 0.0
0.188091 -0.000495139 0.0
0.247372 -0.000651903 0.0
0.249972 -0.000704775 0.0
0.240221 -0.000703399 0.0
0.227858 -0.000668692 0.0
0.247595 -0.000743507 0.0
0.239752 -0.000644084 0.0
0.227174 -0.000569864 0.0
0.186995 -0.000433481 0.0
0.20956 -0.000522687 0.0
0.210481 -0.000597575 0.0
0 0 0.0
0.0480538 -3.9479e-05 0.0
0.12834 -0.000272725 0.0
0.090802 -0.000139579 0.0
0.126851 -0.000250766 0.0
0.159395 -0.000355636 0.0
0 0 0.0
0.0893346 -0.000148257 0.0
0.0470084 -4.76595e-05 0.0
0.188206 -0.000561243 0.0
0.160813 -0.000425826 0.0
0.227908 -0.000739423 0.0
0.24734 -0.000721471 0.0
0.249957 -0.000783351 0.0
0.247599 -0.000811056 0.0
0.240247 -0.000772414 0.0
0.2397 -0.000706794 0.0
0.227111 -0.000623962 0.0
0.186888 -0.000482881 0.0
0.209483 -0.000569478 0.0
0.21057 -0.000675779 0.0
0 0 0.0
0.048128 -4.10067e-05 0.0
0.0909186 -0.000149049 0.0
0.128494 -0.00030247 0.0
0.126727 -0.000284116 0.0
0.159298 -0.000390552 0.0
0 0 0.0
0.046915 -5.56139e-05 0.0
0.0892328 -0.000166237 0.0
0.188305 -0.000617421 0.0
0.160968 -0.000482079 0.0
0.227959 -0.000819686 0.0
0.240291 -0.000912529 0.0
0.247301 -0.000795306 0.0
0.249934 -0.000868106 0.0
0.247602 -0.000884021 0.0
0.239639 -0.000770803 0.0
0.227041 -0.000677734 0.0
0.186819 -0.000511522 0.0
0.209399 -0.000613088 0.0
0.210671 -0.000769415 0.0
0 0 0.0
0.0482088 -4.35034e-05 0.0
0.128703 -0.000350247 0.0
0.09108 -0.000167949 0.0
0.12663 -0.000309459 0.0
0.159197 -0.000423918 0.0
0.0468174 -6.3476e-05 0.0
0 0 0.0
0.0890962 -0.000189758 0.0
0.161148 -0.000553815 0.0
0.188489 -0.000732139 0.0
0.228054 -0.000975498 0.0
0.240319 -0.00103371 0.0
0.247596 -0.000990781 0.0
0.247223 -0.000907299 0.0
0.2499 -0.000963138 0.0
0.239564 -0.000836103 0.0
0.226929 -0.000745111 0.0
0.1867 -0.000551419 0.0
0.209307 -0.000651739 0.0
0.210782 -0.000882887 0.0
0 0 0.0
0.0482974 -4.87052e-05 0.0
0.0912519 -0.000193019 0.0
0.161358 -0.000645047 0.0
0.128883 -0.000398969 0.0
0.126513 -0.000336062 0.0
0.159113 -0.000446612 0.0
0.0467009 -7.23627e-05 0.0
0 0 0.0
0.0889729 -0.000208907 0.0
0.210885 -0.000997889 0.0
0.188618 -0.000822121 0.0
0.240336 -0.00114383 0.0
0.228121 -0.00112402 0.0
0.247569 -0.00116619 0.0
0.24985 -0.00106548 0.0
0.247165 -0.000971474 0.0
0.239472 -0.00089868 0.0
0.226845 -0.000781991 0.0
0.186622 -0.00056802 0.0
0.15899 -0.0004685 0.0
0.209203 -0.000680258 0.0
0 0 0.0
0.0914385 -0.000231172 0.0
0.048411 -5.76564e-05 0.0
0.161549 -0.000744213 0.0
0.129168 -0.000496219 0.0
0.126393 -0.000353951 0.0
0 0 0.0
0.0465723 -8.02546e-05 0.0
0.0888167 -0.000226272 0.0
0.210997 -0.00113337 0.0
0.188856 -0.00101318 0.0
0.240345 -0.00126638 0.0
0.228189 -0.00129974 0.0
0.247531 -0.00128063 0.0
0.249776 -0.00117978 0.0
0.247095 -0.00103974 0.0
0.158904 -0.000467179 0.0
0.209105 -0.000693554 0.0
0.239355 -0.000957757 0.0
0.226749 -0.000813433 0.0
0.186513 -0.000575679 0.0
0 0 0.0
0.0485383 -7.13781e-05 0.0
0.0916845 -0.000293076 0.0
0.16182 -0.00090055 0.0
0.129468 -0.000616998 0.0
0.0886751 -0.000229807 0.0
0.126257 -0.000354891 0.0
0 0 0.0
0.0464303 -8.44251e-05 0.0
0.211131 -0.0013313 0.0
0.189073 -0.00121213 0.0
0.240341 -0.0014472 0.0
0.228247 -0.00151003 0.0
0.247486 -0.00140634 0.0
0.249677 -0.00130633 0.0
0.246919 -0.00116633 0.0
0.158799 -0.000442877 0.0
0.239211 -0.00101303 0.0
0.208993 -0.000693137 0.0
0.226559 -0.000845839 0.0
0.186367 -0.00055264 0.0
0 0 0.0
0.0920348 -0.000390298 0.0
0.0487123 -9.95822e-05 0.0
0.162195 -0.00115427 0.0
0.129826 -0.000781852 0.0
0.0885565 -0.000217477 0.0
0.126146 -0.000332116 0.0
0 0 0.0
0.0462918 -8.75307e-05 0.0
0.189307 -0.00146327 0.0
0.211271 -0.00157567 0.0
0.240315 -0.00166367 0.0
0.247396 -0.00158492 0.0
0.228291 -0.00176077 0.0
0.249537 -0.00144428 0.0
0.246745 -0.00126316 0.0
0.239025 -0.00106231 0.0
0.248968 -0.00165157 0.0
0.158689 -0.000384597 0.0
0.226374 -0.000852396 0.0
0.208786 -0.000660275 0.0
0.186262 -0.000513978 0.0
0 0 0.0
0.0923986 -0.000500269 0.0
0.0489555 -0.000133209 0.0
0.162477 -0.00137225 0.0
0.130254 -0.00099535 0.0
0.0884456 -0.000186736 0.0
0.126059 -0.000286078 0.0
0 0 0.0
0.0461727 -8.22352e-05 0.0
0.189558 -0.00177199 0.0
0.211406 -0.00187306 0.0
0.240248 -0.00190838 0.0
0.228313 -0.00206251 0.0
0.24718 -0.00189679 0.0
0.248605 -0.00145339 0.0
0.243326 -0.00121791 0.0
0.233133 -0.000967857 0.0
0.249231 -0.00168385 0.0
0.158581 -0.000283527 0.0
0.218022 -0.000724144 0.0
0.203442 -0.000553904 0.0
0.186073 -0.000403485 0.0
0 0 0.0
0.0929041 -0.000655538 0.0
0.0492636 -0.000176856 0.0
0.162873 -0.00170234 0.0
0.130768 -0.001263 0.0
0.125975 -0.000178763 0.0
0.0883733 -0.000131757 0.0
0 0 0.0
0.0460701 -6.59986e-05 0.0
0.189822 -0.00214717 0.0
0.211531 -0.00222875 0.0
0.246963 -0.00214223 0.0
0.2283 -0.00241229 0.0
0.240149 -0.00220091 0.0
0.246373 -0.00142051 0.0
0.238617 -0.00112363 0.0
0.225967 -0.000822138 0.0
0.248943 -0.00186517 0.0
0.158464 -0.00013891 0.0
0.208413 -0.000537594 0.0
0.185879 -0.000269709 0.0
0 0 0.0
0.0496517 -0.000229483 0.0
0.0935297 -0.000841918 0.0
0.131292 -0.00153452 0.0
0.190097 -0.00258807 0.0
0.163317 -0.00209619 0.0
0.12593 -4.15193e-05 0.0
0.0883522 -5.2652e-05 0.0
0.0460026 -4.47563e-05 0.0
0 0 0.0
0.228262 -0.00274614 0.0
0.211638 -0.00264994 0.0
0.246746 -0.00235987 0.0
0.239985 -0.00253818 0.0
0.225638 -0.000774142 0.0
0.246044 -0.00152539 0.0
0.238272 -0.00115208 0.0
0.24858 -0.00206648 0.0
0.185658 -8.90858e-05 0.0
0.158329 0.000100255 0.0
0.208033 -0.000382685 0.0
0 0 0.0
0.0501744 -0.00029964 0.0
0.0944055 -0.00107427 0.0
0.132018 -0.00190455 0.0
0.190307 -0.00297356 0.0
0.163934 -0.00266444 0.0
0.125937 0.000134799 0.0
0.0884182 6.62965e-05 0.0
0.0459994 -1.26482e-05 0.0
0 0 0.0
0.126009 0.000349837 0.0
0.228187 -0.00310731 0.0
0.211744 -0.00330025 0.0
0.239655 -0.00309229 0.0
0.246482 -0.00259489 0.0
0.225069 -0.000676651 0.0
0.237846 -0.0011711 0.0
0.245629 -0.00164023 0.0
0.248116 -0.00229427 0.0
0.18539 0.000133655 0.0
0.158208 0.000342032 0.0
0.20765 -0.000228197 0.0
0 0 0.0
0.0508219 -0.000369152 0.0
0.0953889 -0.00132131 0.0
0.132873 -0.0023173 0.0
0.190601 -0.00353228 0.0
0.164521 -0.00320183 0.0
0.0460471 2.07291e-05 0.0
0.0885642 0.000187278 0.0
0 0 0.0
0.126112 0.000553515 0.0
0.228044 -0.00361473 0.0
0.211786 -0.00387365 0.0
0.239315 -0.00354342 0.0
0.246054 -0.00294134 0.0
0.224625 -0.000610471 0.0
0.237323 -0.00118799 0.0
0.247552 -0.00254658 0.0
0.244858 -0.00182617 0.0
0.185151 0.000323429 0.0
0.158095 0.000615454 0.0
0.207198 -4.29402e-05 0.0
0 0 0.0
0.0516221 -0.000455219 0.0
0.0965683 -0.00159001 0.0
0.134051 -0.00284236 0.0
0.190984 -0.004326 0.0
0.211797 -0.00451388 0.0
0.165196 -0.00379511 0.0
0.0461767 6.1989e-05 0.0
0.0888154 0.000321925 0.0
0 0 0.0
0.126311 0.000802011 0.0
0.227754 -0.00438246 0.0
0.238985 -0.00394762 0.0
0.245529 -0.00332572 0.0
0.247047 -0.00276176 0.0
0.22412 -0.000526042 0.0
0.236677 -0.00121606 0.0
0.244171 -0.00197153 0.0
0.158 0.000914972 0.0
0.184795 0.000595136 0.0
0.206647 0.000158112 0.0
0 0 0.0
0.0526169 -0.000553419 0.0
0.0979646 -0.0018817 0.0
0.135266 -0.00333683 0.0
0.191222 -0.0048499 0.0
0.211767 -0.00520488 0.0
0.165969 -0.00443504 0.0
0.0463865 0.000100095 0.0
0.0891859 0.000466258 0.0
0 0 0.0
0.157926 0.00116072 0.0
0.089675 0.000614975 0.0
0.126635 0.00108677 0.0
0.227441 -0.00504373 0.0
0.238585 -0.00437392 0.0
0.244565 -0.00395933 0.0
0.246477 -0.00298834 0.0
0.243562 -0.00210664 0.0
0.223401 -0.000423269 0.0
0.235584 -0.00125789 0.0
0.184279 0.000958514 0.0
0.206104 0.00033182 0.0
0.227141 -0.00561333 0.0
0 0 0.0
0.0537375 -0.000645468 0.0
0.136687 -0.00385615 0.0
0.0995732 -0.002188 0.0
0.21171 -0.00596815 0.0
0.19167 -0.00578514 0.0
0.166846 -0.00511175 0.0
0.0467083 0.000152154 0.0
0 0 0.0
0.183916 0.00116759 0.0
0.157864 0.00146061 0.0
0.127032 0.00131167 0.0
0.0470368 0.000190937 0.0
0.0902741 0.000743985 0.0
0.238005 -0.00496287 0.0
0.243931 -0.00434387 0.0
0.24559 -0.00332946 0.0
0.244835 -0.00361839 0.0
0.242858 -0.00224711 0.0
0.222544 -0.000335889 0.0
0.234607 -0.00131145 0.0
0.205487 0.000514934 0.0
0.226771 -0.00622596 0.0
0.0549509 -0.000739127 0.0
0 0 0.0
0.138033 -0.00430952 0.0
0.101403 -0.00249255 0.0
0.211622 -0.00678096 0.0
0.191957 -0.00638357 0.0
0.167859 -0.00582663 0.0
0 0 0.0
0.183423 0.00144796 0.0
0.157822 0.00178019 0.0
0.127424 0.00149253 0.0
0.0474628 0.000217171 0.0
0.090954 0.000850256 0.0
0.236999 -0.00589127 0.0
0.243235 -0.00474887 0.0
0.243989 -0.00392084 0.0
0.241325 -0.00255776 0.0
0.221568 -0.000251582 0.0
0.233515 -0.00138332 0.0
0.204413 0.000765215 0.0
0.226273 -0.00703127 0.0
0 0 0.0
0.0564261 -0.000832804 0.0
0.13982 -0.00485632 0.0
0.103269 -0.00277607 0.0
0.169001 -0.00656052 0.0
0.21151 -0.00765918 0.0
0.19252 -0.00742846 0.0
0 0 0.0
0 0 0.0
0.182869 0.00168147 0.0
0.157845 0.00199819 0.0
0.127981 0.00165348 0.0
0.0917293 0.000922883 0.0
0.0479477 0.000234636 0.0
0.236141 -0.00662286 0.0
0.242197 -0.00533177 0.0
0.232513 -0.00146691 0.0
0.242736 -0.00437391 0.0
0.240048 -0.00283165 0.0
0.220444 -0.000199934 0.0
0.203455 0.000927991 0.0
0.23537 -0.00726469 0.0
0.225682 -0.00789997 0.0
0.0580989 -0.000937755 0.0
0.10556 -0.00309454 0.0
0.14183 -0.00542495 0.0
0.170052 -0.00718383 0.0
0.211395 -0.00858641 0.0
0.192897 -0.00810695 0.0
0 0 0.0
0 0 0.0
0.157875 0.00213232 0.0
0.182163 0.00191738 0.0
0.0924691 0.000959715 0.0
0.128691 0.00176569 0.0
0.0484321 0.000243397 0.0
0.240458 -0.0062522 0.0
0.241303 -0.0048857 0.0
0.202422 0.00104947 0.0
0.231417 -0.00156408 0.0
0.238966 -0.00307549 0.0
0.218722 -0.000178692 0.0
0.234529 -0.00792245 0.0
0.224797 -0.00917672 0.0
0.211263 -0.0095819 0.0
0.0600076 -0.00106584 0.0
0.108094 -0.00343281 0.0
0.144425 -0.00609498 0.0
0.171495 -0.00797212 0.0
0.193643 -0.0092802 0.0
0 0 0.0
0 0 0.0
0.158 0.00224092 0.0
0.181579 0.00201597 0.0
0.0934255 0.000947968 0.0
0.12939 0.00178188 0.0
0.0489837 0.000243892 0.0
0.237769 -0.00334701 0.0
0.239712 -0.00544205 0.0
0.239049 -0.00699105 0.0
0.201306 0.00112141 0.0
0.229902 -0.00173618 0.0
0.21727 -0.000229633 0.0
0.181013 0.00203116 0.0
0.23286 -0.00920597 0.0
0 0 0.0
0.224026 -0.0102287 0.0
0.19435 -0.0102925 0.0
0.211134 -0.0106389 0.0
0.061943 -0.00117215 0.0
0.146603 -0.00662293 0.0
0.111174 -0.00383866 0.0
0.173477 -0.00899581 0.0
0 0 0.0
0 0 0.0
0 0 0.0
0 0 0.0
0 0 0.0
0.0494616 0.00022536 0.0
0.130149 0.00170791 0.0
0.158176 0.00221459 0.0
0.0941807 0.000892963 0.0
0.236071 -0.00372691 0.0
0.237936 -0.00606998 0.0
0.237502 -0.00779257 0.0
0.215981 -0.000295138 0.0
0.200112 0.00111688 0.0
0.227496 -0.00205315 0.0
0.199068 0.00104997 0.0
0.18059 0.00197779 0.0
0.231497 -0.0102343 0.0
0.223196 -0.0113398 0.0
0 0 0.0
6.81613e-05 -1.40567e-05 0.0
0 0 0.0
-0.000545867 0.00411739 0.0
0.211031 -0.0117803 0.0
0.194963 -0.0110823 0.0
0.0642969 -0.00131557 0.0
0.149336 -0.00727488 0.0
0.11425 -0.00424738 0.0
0.175374 -0.00991511 0.0
0 0 0.0
0 0 0.0
0 0 0.0
-0.000445167 0.00257435 0.0
-0.000124552 0.000110726 0.0
-0.000193792 0.00017296 0.0
0 0 0.0
0.0498747 0.000183588 0.0
0.130775 0.00158026 0.0
0.158391 0.00207439 0.0
0.0950357 0.000768538 0.0
0.2342 -0.00417866 0.0
0.235978 -0.00676047 0.0
0.235781 -0.00866034 0.0
0.214624 -0.000416572 0.0
0.225978 -0.00230146 0.0
0.198001 0.000920092 0.0
0.179941 0.0017273 0.0
0.230018 -0.0113296 0.0
0.22467 -0.0122099 0.0
0.217146 -0.0126931 0.0
0 0 0.0
-8.88705e-05 0.000102759 0.0
0 0 0.0
0 0 0.0
-0.00185304 0.00847314 0.0
-0.00196581 0.00607589 0.0
0.207515 -0.0127562 0.0
0.195866 -0.0122163 0.0
0.117265 -0.00466486 0.0
0.0666698 -0.0014858 0.0
0.152332 -0.00800937 0.0
0.17744 -0.0109107 0.0
0 0 0.0
-0.000921802 0.00169491 0.0
-0.00148426 0.00360487 0.0
-0.000774527 0.00090865 0.0
-0.000948899 0.000713654 0.0
0 0 0.0
0.0502239 0.000133018 0.0
0.131503 0.00133095 0.0
0.158646 0.00181727 0.0
0.095721 0.000595109 0.0
0.232137 -0.00468501 0.0
0.233834 -0.00751493 0.0
0.233887 -0.00960117 0.0
0.212229 -0.000731828 0.0
0.224358 -0.00257591 0.0
0.196742 0.000634695 0.0
0.158977 0.00139998 0.0
0.179505 0.00135564 0.0
0.228735 -0.0122541 0.0
0.221678 -0.0133801 0.0
0.210876 -0.0139414 0.0
0 0 0.0
-0.000839562 0.000323883 0.0
0 0 0.0
0 0 0.0
0 0 0.0
0 0 0.0
-0.00375368 0.00637403 0.0
-0.000450571 0.00683659 0.0
-0.00177393 0.010426 0.0
-0.00426671 0.0133822 0.0
-0.00388451 0.0097606 0.0
0 0 0.0
2.99916e-05 0.00857246 0.0
0.197131 -0.0137982 0.0
0.179265 -0.0118107 0.0
0 0 0.0
0.0696225 -0.00173603 0.0
0.12092 -0.00521435 0.0
0.156128 -0.00906212 0.0
0 0 0.0
0 0 0.0
-0.00257912 0.00351958 0.0
-0.00230931 0.00212804 0.0
-0.00247267 0.00135382 0.0
0 0 0.0
0.0504521 6.23941e-05 0.0
0.132262 0.000914309 0.0