# vtk DataFile Version 3.0
Mesh NS-CD Problem
ASCII
DATASET UNSTRUCTURED_GRID
POINTS 10839 float
-2 0.3 0.0
-2 0.4 0.0
-2 0.35 0.0
-2 0.45 0.0
-2 0.5 0.0
-2 0.55 0.0
-2 0 0.0
-2 0.05 0.0
-2 0.85 0.0
-2 0.9 0.0
-2 0.1 0.0
-2 0.15 0.0
-2 0.25 0.0
-2 0.2 0.0
-1.96653 0.266667 0.0
-1.96524 0.415385 0.0
-1.96485 0.315 0.0
-1.96348 0.363636 0.0
-1.96414 0.464286 0.0
-2 0.6 0.0
-1.96538 0.584615 0.0
-1.96538 0.538462 0.0
-1.94979 0 0.0
-1.96653 0.0666666 0.0
-1.93306 0.0333333 0.0
-2 0.8 0.0
-2 0.75 0.0
-2 0.7 0.0
-2 0.65 0.0
-1.96249 0.7375 0.0
-1.96666 0.833333 0.0
-2 1 0.0
-2 0.95 0.0
-1.96249 0.8875 0.0
-1.96666 0.933333 0.0
-1.96234 0.1125 0.0
-1.96653 0.166667 0.0
-1.93724 0.225 0.0
-1.92971 0.28 0.0
-1.93048 0.380769 0.0
-1.93048 0.423077 0.0
-1.89958 0.3375 0.0
-1.9292 0.484203 0.0
-1.92117 0.530907 0.0
-1.96363 0.636364 0.0
-1.93076 0.576923 0.0
-1.89958 0 0.0
-1.88703 0.0375 0.0
-1.90963 0.08 0.0
-1.86611 0.0666666 0.0
-1.93749 0.775 0.0
-1.93635 0.672727 0.0
-1.92999 0.72 0.0
-1.93332 0.866667 0.0
-1.92856 0.821429 0.0
-1.94999 1 0.0
-1.92499 0.9625 0.0
-1.92499 0.925 0.0
-1.89998 0.9 0.0
-1.89958 0.125 0.0
-1.92827 0.178571 0.0
-1.89958 0.233333 0.0
-1.89045 0.290909 0.0
-1.86096 0.311538 0.0
-1.89241 0.392857 0.0
-1.89334 0.448489 0.0
-1.85655 0.357143 0.0
-1.89614 0.653846 0.0
-1.89427 0.504121 0.0
-1.8952 0.559753 0.0
-1.89614 0.615385 0.0
-1.84937 0 0.0
-1.83264 0.0333333 0.0
-1.85655 0.107143 0.0
-1.81172 0.075 0.0
-1.89998 0.766667 0.0
-1.89089 0.709091 0.0
-1.87498 0.85 0.0
-1.85998 0.79 0.0
-1.88748 0.8125 0.0
-1.89998 1 0.0
-1.88748 0.9625 0.0
-1.86664 0.933333 0.0
-1.85712 0.892857 0.0
-1.87448 0.15 0.0
-1.86611 0.194444 0.0
-1.83264 0.133333 0.0
-1.83264 0.2625 0.0
-1.82068 0.321429 0.0
-1.85664 0.404762 0.0
-1.85674 0.452381 0.0
-1.85683 0.5 0.0
-1.81184 0.375 0.0
-1.85712 0.642857 0.0
-1.85693 0.547619 0.0
-1.85702 0.595238 0.0
-1.79917 0 0.0
-1.78482 0.0357143 0.0
-1.79917 0.116667 0.0
-1.76569 0.0666666 0.0
-1.85452 0.745455 0.0
-1.82689 0.692308 0.0
-1.81815 0.781818 0.0
-1.82497 0.825 0.0
-1.84997 1 0.0
-1.8333 0.958333 0.0
-1.81247 0.8875 0.0
-1.81247 0.925 0.0
-1.81742 0.218182 0.0
-1.82427 0.175 0.0
-1.77634 0.145455 0.0
-1.79144 0.242308 0.0
-1.78482 0.285714 0.0
-1.77469 0.332653 0.0
-1.81215 0.529762 0.0
-1.81194 0.422619 0.0
-1.81203 0.470238 0.0
-1.76714 0.392857 0.0
-1.81234 0.625 0.0
-1.79732 0.571429 0.0
-1.74896 0 0.0
-1.73222 0.0333333 0.0
-1.75398 0.105 0.0
-1.71883 0.07 0.0
-1.79227 0.730769 0.0
-1.78007 0.679121 0.0
-1.75765 0.769231 0.0
-1.78178 0.818182 0.0
-1.78996 0.86 0.0
-1.79996 1 0.0
-1.78568 0.964286 0.0
-1.76663 0.922222 0.0
-1.76569 0.1875 0.0
-1.73222 0.15 0.0
-1.74896 0.25 0.0
-1.73714 0.304762 0.0
-1.76743 0.537202 0.0
-1.72869 0.343878 0.0
-1.76732 0.485119 0.0
-1.76723 0.440476 0.0
-1.72243 0.410714 0.0
-1.76757 0.607143 0.0
-1.69875 0 0.0
-1.68369 0.035 0.0
-1.69875 0.1125 0.0
-1.66528 0.075 0.0
-1.74341 0.708974 0.0
-1.73324 0.665934 0.0
-1.70441 0.74478 0.0
-1.71423 0.785714 0.0
-1.72303 0.826923 0.0
-1.74541 0.854545 0.0
-1.74541 0.890909 0.0
-1.74996 1 0.0
-1.73745 0.9625 0.0
-1.71359 0.927273 0.0
-1.68716 0.153846 0.0
-1.7131 0.214286 0.0
-1.70725 0.275 0.0
-1.69712 0.321939 0.0
-1.72279 0.589286 0.0
-1.72261 0.5 0.0
-1.7227 0.544643 0.0
-1.6827 0.355102 0.0
-1.67773 0.428571 0.0
-1.70763 0.464286 0.0
-1.70369 0.62449 0.0
-1.64854 0 0.0
-1.63181 0.0375 0.0
-1.64137 0.142857 0.0
-1.61764 0.0769231 0.0
-1.69458 0.703846 0.0
-1.67471 0.657437 0.0
-1.66143 0.727637 0.0
-1.67125 0.768571 0.0
-1.67851 0.821429 0.0
-1.68841 0.861538 0.0
-1.70904 0.890909 0.0
-1.69995 1 0.0
-1.68176 0.963636 0.0
-1.67267 0.927273 0.0
-1.65427 0.187143 0.0
-1.66718 0.231429 0.0
-1.66554 0.3 0.0
-1.67802 0.571429 0.0
-1.67792 0.523809 0.0
-1.6367 0.366327 0.0
-1.63682 0.423469 0.0
-1.62568 0.502976 0.0
-1.6629 0.470238 0.0
-1.65254 0.618367 0.0
-1.6059 0.307143 0.0
-1.59833 0 0.0
-1.58288 0.0384615 0.0
-1.60563 0.169643 0.0
-1.58179 0.112271 0.0
-1.56964 0.0714286 0.0
-1.64574 0.690385 0.0
-1.62827 0.751429 0.0
-1.63371 0.791071 0.0
-1.64279 0.857143 0.0
-1.65378 0.896154 0.0
-1.64994 1 0.0
-1.6363 0.963636 0.0
-1.61916 0.930769 0.0
-1.61345 0.209107 0.0
-1.62126 0.248571 0.0
-1.56989 0.196429 0.0
-1.63324 0.553571 0.0
-1.58846 0.535714 0.0
-1.59408 0.361905 0.0
-1.59161 0.402211 0.0
-1.58832 0.464286 0.0
-1.61504 0.598581 0.0
-1.59683 0.64359 0.0
-1.57899 0.274107 0.0
-1.56176 0.322381 0.0
-1.54812 0 0.0
-1.53378 0.0357143 0.0
-1.54593 0.147619 0.0
-1.53385 0.0732143 0.0
-1.53393 0.110714 0.0
-1.58522 0.704286 0.0
-1.58709 0.745 0.0
-1.58896 0.785714 0.0
-1.60695 0.830357 0.0
-1.60707 0.892857 0.0
-1.59993 1 0.0
-1.58454 0.965385 0.0
-1.57135 0.928571 0.0
-1.55209 0.241071 0.0
-1.5291 0.198214 0.0
-1.56936 0.570918 0.0
-1.54369 0.517857 0.0
-1.5464 0.380952 0.0
-1.54564 0.427721 0.0
-1.54488 0.47449 0.0
-1.55026 0.606122 0.0
-1.54222 0.677143 0.0
-1.52943 0.282857 0.0
-1.52143 0.33619 0.0
-1.49792 0 0.0
-1.49802 0.05 0.0
-1.49822 0.15 0.0
-1.49312 0.1 0.0
-1.5423 0.717143 0.0
-1.54419 0.767857 0.0
-1.54727 0.819048 0.0
-1.57122 0.861905 0.0
-1.53553 0.914286 0.0
-1.54992 1 0.0
-1.53563 0.964286 0.0
-1.49842 0.25 0.0
-1.48831 0.2 0.0
-1.5214 0.558929 0.0
-1.49891 0.5 0.0
-1.49871 0.4 0.0
-1.47631 0.45 0.0
-1.49911 0.6 0.0
-1.49921 0.65 0.0
-1.49931 0.7 0.0
-1.48111 0.35 0.0
-1.48351 0.3 0.0
-1.44771 0 0.0
-1.44782 0.05 0.0
-1.44804 0.15 0.0
-1.44793 0.1 0.0
-1.49941 0.75 0.0
-1.49951 0.8 0.0
-1.49981 0.95 0.0
-1.49961 0.85 0.0
-1.49971 0.9 0.0
-1.49991 1 0.0
-1.44826 0.25 0.0
-1.43815 0.2 0.0
-1.47151 0.55 0.0
-1.44881 0.5 0.0
-1.44859 0.4 0.0
-1.42619 0.45 0.0
-1.44913 0.65 0.0
-1.44902 0.6 0.0
-1.44935 0.75 0.0
-1.44924 0.7 0.0
-1.43972 0.35 0.0
-1.43336 0.3 0.0
-1.3975 0 0.0
-1.39762 0.05 0.0
-1.39786 0.15 0.0
-1.39274 0.1 0.0
-1.44957 0.85 0.0
-1.44946 0.8 0.0
-1.4523 0.95 0.0
-1.44968 0.9 0.0
-1.4499 1 0.0
-1.3981 0.25 0.0
-1.38798 0.2 0.0
-1.42141 0.55 0.0
-1.3987 0.5 0.0
-1.39834 0.35 0.0
-1.37845 0.4 0.0
-1.37607 0.45 0.0
-1.40784 0.65 0.0
-1.39894 0.6 0.0
-1.41185 0.75 0.0
-1.39918 0.7 0.0
-1.38322 0.3 0.0
-1.34729 0 0.0
-1.34492 0.05 0.0
-1.34018 0.15 0.0
-1.34255 0.1 0.0
-1.40707 0.85 0.0
-1.39941 0.8 0.0
-1.39977 0.95 0.0
-1.39965 0.9 0.0
-1.39989 1 0.0
-1.33781 0.2 0.0
-1.33544 0.25 0.0
-1.37131 0.55 0.0
-1.34859 0.5 0.0
-1.33833 0.4 0.0
-1.3307 0.35 0.0
-1.32595 0.45 0.0
-1.34885 0.6 0.0
-1.36655 0.65 0.0
-1.36179 0.75 0.0
-1.34911 0.7 0.0
-1.33307 0.3 0.0
-1.29708 0 0.0
-1.29722 0.05 0.0
-1.2975 0.15 0.0
-1.29236 0.1 0.0
-1.35703 0.85 0.0
-1.34937 0.8 0.0
-1.34988 1 0.0
-1.34962 0.9 0.0
-1.35226 0.95 0.0
-1.28528 0.25 0.0
-1.28764 0.2 0.0
-1.28931 0.35 0.0
-1.32121 0.55 0.0
-1.29848 0.5 0.0
-1.28709 0.45 0.0
-1.2982 0.4 0.0
-1.29876 0.6 0.0
-1.31647 0.65 0.0
-1.29918 0.75 0.0
-1.29904 0.7 0.0
-1.28292 0.3 0.0
-1.24687 0 0.0
-1.24702 0.05 0.0
-1.24717 0.1 0.0
-1.24732 0.15 0.0
-1.29946 0.85 0.0
-1.29932 0.8 0.0
-1.29987 1 0.0
-1.29974 0.95 0.0
-1.30462 0.9 0.0
-1.24762 0.25 0.0
-1.23747 0.2 0.0
-1.24792 0.35 0.0
-1.22807 0.4 0.0
-1.27111 0.55 0.0
-1.24837 0.5 0.0
-1.24822 0.45 0.0
-1.24867 0.6 0.0
-1.26639 0.65 0.0
-1.26167 0.75 0.0
-1.24897 0.7 0.0
-1.23277 0.3 0.0
-1.19667 0 0.0
-1.19683 0.05 0.0
-1.18964 0.15 0.0
-1.19198 0.1 0.0
-1.25695 0.85 0.0
-1.24927 0.8 0.0
-1.25223 0.95 0.0
-1.24987 1 0.0
-1.24957 0.9 0.0
-1.1873 0.2 0.0
-1.18496 0.25 0.0
-1.18028 0.35 0.0
-1.17794 0.4 0.0
-1.1981 0.45 0.0
-1.19842 0.55 0.0
-1.19826 0.5 0.0
-1.19858 0.6 0.0
-1.19874 0.65 0.0
-1.19906 0.75 0.0
-1.1989 0.7 0.0
-1.18262 0.3 0.0
-1.14646 0 0.0
-1.14663 0.05 0.0
-1.1418 0.1 0.0
-1.13713 0.2 0.0
-1.14697 0.15 0.0
-1.20691 0.85 0.0
-1.20926 0.8 0.0
-1.20221 0.95 0.0
-1.19986 1 0.0
-1.20456 0.9 0.0
-1.13997 0.3 0.0
-1.14731 0.25 0.0
-1.13781 0.4 0.0
-1.13014 0.35 0.0
-1.12548 0.45 0.0
-1.14815 0.5 0.0
-1.15962 0.55 0.0
-1.14849 0.6 0.0
-1.15745 0.65 0.0
-1.16155 0.75 0.0
-1.14917 0.8 0.0
-1.14883 0.7 0.0
-1.09625 0 0.0
-1.09661 0.1 0.0
-1.09393 0.05 0.0
-1.09697 0.2 0.0
-1.08929 0.15 0.0
-1.15687 0.85 0.0
-1.14985 1 0.0
-1.15219 0.95 0.0
-1.14951 0.9 0.0
-1.09733 0.3 0.0
-1.08465 0.25 0.0
-1.09769 0.4 0.0
-1.08 0.35 0.0
-1.08661 0.45 0.0
-1.09804 0.5 0.0
-1.12082 0.55 0.0
-1.10916 0.8 0.0
-1.10629 0.7 0.0
-1.0984 0.6 0.0
-1.11616 0.65 0.0
-1.11149 0.75 0.0
-1.04604 0 0.0
-1.04623 0.05 0.0
-1.04642 0.1 0.0
-1.0468 0.2 0.0
-1.03911 0.15 0.0
-1.09948 0.9 0.0
-1.0993 0.85 0.0
-1.09984 1 0.0
-1.09966 0.95 0.0
-1.04718 0.3 0.0
-1.03449 0.25 0.0
-1.04756 0.4 0.0
-1.02986 0.35 0.0
-1.04775 0.45 0.0
-1.04794 0.5 0.0
-1.04813 0.55 0.0
-1.05911 0.8 0.0
-1.04831 0.6 0.0
-1.06376 0.7 0.0
-1.0485 0.65 0.0
-1.04888 0.75 0.0
-0.995833 0 0.0
-0.991231 0.1 0.0
-0.996033 0.05 0.0
-0.986629 0.2 0.0
-0.98893 0.15 0.0
-1.05447 0.9 0.0
-1.04926 0.85 0.0
-1.04983 1 0.0
-1.04964 0.95 0.0
-0.984328 0.25 0.0
-0.99703 0.3 0.0
-0.997429 0.4 0.0
-0.997628 0.45 0.0
-0.979726 0.35 0.0
-0.997827 0.5 0.0
-0.998027 0.55 0.0
-0.998226 0.6 0.0
-0.961416 0.475 0.0
-1.00907 0.8 0.0
-0.998426 0.65 0.0
-0.998625 0.7 0.0
-1.01138 0.75 0.0
-0.945625 0 0.0
-0.946044 0.1 0.0
-0.943334 0.05 0.0
-0.946463 0.2 0.0
-0.938752 0.15 0.0
-1.00444 0.9 0.0
-1.00675 0.85 0.0
-0.999821 1 0.0
-1.00213 0.95 0.0
-0.93417 0.25 0.0
-0.946881 0.3 0.0
-0.9473 0.4 0.0
-0.929588 0.35 0.0
-0.925005 0.45 0.0
-0.960371 0.525 0.0
-0.959325 0.575 0.0
-0.958279 0.625 0.0
-0.922714 0.5 0.0
-0.959017 0.8 0.0
-0.957233 0.675 0.0
-0.952999 0.7125 0.0
-0.948766 0.75 0.0
-0.895417 0 0.0
-0.895855 0.1 0.0
-0.893136 0.05 0.0
-0.896294 0.2 0.0
-0.888573 0.15 0.0
-0.949184 0.85 0.0
-0.954415 0.9 0.0
-0.949812 1 0.0
-0.949603 0.95 0.0
-0.884011 0.25 0.0
-0.896733 0.3 0.0
-0.874887 0.45 0.0
-0.879449 0.35 0.0
-0.897171 0.4 0.0
-0.920423 0.55 0.0
-0.918132 0.6 0.0
-0.915841 0.65 0.0
-0.872606 0.5 0.0
-0.908968 0.8 0.0
-0.91355 0.7 0.0
-0.898707 0.75 0.0
-0.845208 0 0.0
-0.845438 0.05 0.0
-0.845667 0.1 0.0
-0.845896 0.15 0.0
-0.833853 0.25 0.0
-0.846126 0.2 0.0
-0.899146 0.85 0.0
-0.904386 0.9 0.0
-0.899584 0.95 0.0
-0.899804 1 0.0
-0.838062 0.35 0.0
[...]
POINT_DATA 10839
VECTORS Velocity float
0.21 0 0.0
0.24 0 0.0
0.2275 0 0.0
0.2475 0 0.0
0.25 0 0.0
0.2475 0 0.0
0 0 0.0
0.0475 0 0.0
0.1275 0 0.0
0.09 0 0.0
0.09 0 0.0
0.1275 0 0.0
0.1875 0 0.0
0.16 0 0.0
0.195557 -2.4396e-05 0.0
0.242841 -3.32331e-05 0.0
0.215776 -2.90184e-05 0.0
0.231406 -3.26983e-05 0.0
0.248725 -3.53774e-05 0.0
0.24 0 0.0
0.24284 -3.31589e-05 0.0
0.24852 -3.4071e-05 0.0
0 0 0.0
0.062224 -4.28136e-06 0.0
0.0322271 -2.83107e-06 0.0
0.16 0 0.0
0.1875 0 0.0
0.21 0 0.0
0.2275 0 0.0
0.193592 -2.73833e-05 0.0
0.138887 -1.52393e-05 0.0
0 0 0.0
0.0475 0 0.0
0.0998414 -1.06053e-05 0.0
0.0622205 -4.32966e-06 0.0
0.0998462 -1.10794e-05 0.0
0.138891 -1.53728e-05 0.0
0.17438 -3.84518e-05 0.0
0.201606 -5.26199e-05 0.0
0.235787 -6.41902e-05 0.0
0.244085 -6.7153e-05 0.0
0.223602 -8.60221e-05 0.0
0.249751 -7.01508e-05 0.0
0.249044 -7.81574e-05 0.0
0.231404 -3.32273e-05 0.0
0.244081 -6.63606e-05 0.0
0 0 0.0
0.0361084 -5.46646e-06 0.0
0.0736129 -1.52588e-05 0.0
0.0622496 -1.67131e-05 0.0
0.17437 -3.78909e-05 0.0
0.220162 -5.25852e-05 0.0
0.201594 -5.26994e-05 0.0
0.115548 -2.27697e-05 0.0
0.146676 -3.52293e-05 0.0
0 0 0.0
0.0360873 -3.68755e-06 0.0
0.0693659 -1.19412e-05 0.0
0.0899832 -2.36565e-05 0.0
0.109391 -3.19679e-05 0.0
0.146692 -3.4544e-05 0.0
0.178902 -6.44182e-05 0.0
0.206293 -8.41591e-05 0.0
0.214501 -0.000113331 0.0
0.238527 -0.000100545 0.0
0.24735 -0.000104683 0.0
0.229607 -0.00012792 0.0
0.226323 -9.03781e-05 0.0
0.249983 -0.000105197 0.0
0.246426 -0.000102354 0.0
0.23668 -9.63891e-05 0.0
0 0 0.0
0.0322511 -6.17582e-06 0.0
0.0956971 -3.62895e-05 0.0
0.0694301 -2.73529e-05 0.0
0.178876 -6.34433e-05 0.0
0.206269 -8.47975e-05 0.0
0.127476 -4.89619e-05 0.0
0.165873 -8.02525e-05 0.0
0.152325 -5.75251e-05 0.0
0 0 0.0
0.0360793 -5.2952e-06 0.0
0.0621953 -1.65395e-05 0.0
0.0956295 -3.69852e-05 0.0
0.127525 -4.94283e-05 0.0
0.156661 -7.17342e-05 0.0
0.115601 -5.6723e-05 0.0
0.193627 -0.000118135 0.0
0.218142 -0.0001494 0.0
0.24094 -0.000136272 0.0
0.247737 -0.00014131 0.0
0.25 -0.000142848 0.0
0.234398 -0.000172886 0.0
0.229576 -0.000126157 0.0
0.247727 -0.000141 0.0
0.240919 -0.000136034 0.0
0 0 0.0
0.034488 -8.54694e-06 0.0
0.103122 -5.57189e-05 0.0
0.0623042 -2.77041e-05 0.0
0.189727 -0.000100453 0.0
0.212988 -0.000140181 0.0
0.170533 -0.000108758 0.0
0.144329 -8.07744e-05 0.0
0 0 0.0
0.0398975 -9.10614e-06 0.0
0.0997855 -5.06834e-05 0.0
0.0693204 -2.69134e-05 0.0
0.170625 -0.00010887 0.0
0.144422 -8.25158e-05 0.0
0.124378 -8.3645e-05 0.0
0.18365 -0.000137535 0.0
0.204132 -0.000164592 0.0
0.222039 -0.000193715 0.0
0.249109 -0.00018742 0.0
0.244027 -0.000182437 0.0
0.24912 -0.000187428 0.0
0.238551 -0.000219953 0.0
0.234353 -0.000171874 0.0
0.244883 -0.000197538 0.0
0 0 0.0
0.032293 -9.05e-06 0.0
0.0940753 -5.85565e-05 0.0
0.0652188 -3.50288e-05 0.0
0.196696 -0.000150371 0.0
0.217871 -0.00018465 0.0
0.177437 -0.000152592 0.0
0.148689 -0.000106581 0.0
0.120328 -7.46792e-05 0.0
0 0 0.0
0.03439 -8.63557e-06 0.0
0.0716431 -3.51667e-05 0.0
0.152425 -0.00011948 0.0
0.127616 -0.000103799 0.0
0.187579 -0.000170445 0.0
0.211951 -0.000212204 0.0
0.248605 -0.000232512 0.0
0.225686 -0.000240354 0.0
0.249783 -0.000234196 0.0
0.246474 -0.00023026 0.0
0.242065 -0.000269311 0.0
0.23849 -0.000219338 0.0
0 0 0.0
0.0338757 -1.13394e-05 0.0
0.0999945 -7.81499e-05 0.0
0.0695469 -4.6622e-05 0.0
0.20626 -0.00019871 0.0
0.222404 -0.000231552 0.0
0.189974 -0.000206418 0.0
0.168253 -0.000166798 0.0
0.143002 -0.000128034 0.0
0.124193 -9.45568e-05 0.0
0.0970828 -6.35708e-05 0.0
0 0 0.0
0.0360198 -1.09938e-05 0.0
0.0673134 -3.76812e-05 0.0
0.130336 -0.000125368 0.0
0.168483 -0.000167578 0.0
0.199473 -0.000218513 0.0
0.218379 -0.000256354 0.0
0.241992 -0.000269965 0.0
0.25 -0.000281782 0.0
0.247989 -0.000278502 0.0
0.229082 -0.000289176 0.0
0.244938 -0.000320507 0.0
0.248741 -0.000295637 0.0
0.234445 -0.000276551 0.0
0 0 0.0
0.0362343 -1.46154e-05 0.0
0.122661 -0.000128391 0.0
0.0712315 -5.513e-05 0.0
0.208349 -0.000242867 0.0
0.225126 -0.000288904 0.0
0.198047 -0.000252072 0.0
0.177724 -0.000208837 0.0
0.146524 -0.000154117 0.0
0.11913 -0.000107774 0.0
0.0970497 -7.2092e-05 0.0
0 0 0.0
0.0349373 -1.23095e-05 0.0
0.0672758 -4.2419e-05 0.0
0.152302 -0.000175094 0.0
0.178018 -0.000213752 0.0
0.210117 -0.000270297 0.0
0.244858 -0.000320405 0.0
0.24942 -0.000329145 0.0
0.232226 -0.000339961 0.0
0.244197 -0.000364468 0.0
0.249988 -0.000388914 0.0
0.249132 -0.000345785 0.0
0.235912 -0.000330972 0.0
0.212964 -0.000329816 0.0
0 0 0.0
0.0371636 -1.72149e-05 0.0
0.141112 -0.000178586 0.0
0.0999601 -0.000108111 0.0
0.0666025 -5.3731e-05 0.0
0.213628 -0.000295283 0.0
0.186606 -0.000257105 0.0
0.165083 -0.000209326 0.0
0.122239 -0.000129173 0.0
0.0928639 -7.90544e-05 0.0
0 0 0.0
0.0349072 -1.37446e-05 0.0
0.0642241 -4.50513e-05 0.0
0.165599 -0.000223689 0.0
0.186969 -0.000262835 0.0
0.158126 -0.000233956 0.0
0.247091 -0.000374226 0.0
0.248691 -0.000429868 0.0
0.231053 -0.000381565 0.0
0.240526 -0.000407156 0.0
0.248758 -0.000429527 0.0
0.240202 -0.000380571 0.0
0.229255 -0.000373835 0.0
0.199183 -0.000322829 0.0
0.218635 -0.000385664 0.0
0 0 0.0
0.0346516 -1.68929e-05 0.0
0.126172 -0.000173533 0.0
0.0681814 -6.07013e-05 0.0
0.0988226 -0.000117705 0.0
0.208081 -0.000337463 0.0
0.189758 -0.00029434 0.0
0.168124 -0.000244432 0.0
0.140617 -0.000177284 0.0
0.0954063 -9.40019e-05 0.0
0 0 0.0
0.0332509 -1.4068e-05 0.0
0.0660529 -5.36331e-05 0.0
0.183225 -0.000304986 0.0
0.159265 -0.000261716 0.0
0.244898 -0.000443076 0.0
0.24966 -0.000486189 0.0
0.235962 -0.00044619 0.0
0.244859 -0.000471552 0.0
0.249378 -0.000485086 0.0
0.23862 -0.000448518 0.0
0.218419 -0.000405425 0.0
0.203106 -0.000376383 0.0
0.223372 -0.000440711 0.0
0 0 0.0
0.0478093 -3.36851e-05 0.0
0.127924 -0.000197766 0.0
0.0904275 -0.000110561 0.0
0.202606 -0.000362544 0.0
0.177964 -0.000298359 0.0
0.147885 -0.00022417 0.0
0.118717 -0.000147226 0.0
0.0780236 -7.89833e-05 0.0
0 0 0.0
0.0342286 -1.65751e-05 0.0
0.187834 -0.00036086 0.0
0.160404 -0.000291098 0.0
0.246451 -0.000505938 0.0
0.25 -0.000544986 0.0
0.24014 -0.000514778 0.0
0.247577 -0.000567251 0.0
0.239859 -0.000514172 0.0
0.227291 -0.000476103 0.0
0.209727 -0.000423706 0.0
0.227725 -0.000499902 0.0
0.210291 -0.000441639 0.0
0 0 0.0
0.0478733 -3.75896e-05 0.0
0.128019 -0.000220703 0.0
0.0905101 -0.000121558 0.0
0.187168 -0.000358863 0.0
0.159615 -0.000281575 0.0
0.0471944 -3.30713e-05 0.0
0.12708 -0.000195125 0.0
0.0895853 -0.000108353 0.0
0 0 0.0
0.18791 -0.000405339 0.0
0.160494 -0.0003257 0.0
0.24742 -0.00057354 0.0
0.249999 -0.000613647 0.0
0.240173 -0.000580072 0.0
0.247594 -0.000637411 0.0
0.227244 -0.000535651 0.0
0.239826 -0.00057857 0.0
0.187092 -0.00040287 0.0
0.209665 -0.000476373 0.0
0.227766 -0.000548556 0.0
0.210357 -0.000496256 0.0
0 0 0.0
0.0479438 -4.1198e-05 0.0
0.128126 -0.000245352 0.0
0.090622 -0.000136311 0.0
0.126985 -0.000218612 0.0
0.159528 -0.000315781 0.0
0.0471345 -3.66808e-05 0.0
0.089495 -0.000120418 0.0
0 0 0.0
0.187997 -0.000452566 0.0
0.160596 -0.000363025 0.0
0.247402 -0.000643325 0.0
0.249998 -0.000687154 0.0
0.22781 -0.000601603 0.0
0.240224 -0.000678118 0.0
0.247613 -0.000713214 0.0
0.227198 -0.000586077 0.0
0.239789 -0.000647719 0.0
0.187028 -0.000436712 0.0
0.209593 -0.000532629 0.0
0.21043 -0.000554687 0.0
0 0 0.0
0.0480265 -4.57984e-05 0.0
0.128263 -0.00027594 0.0
0.090736 -0.000150531 0.0
0.126896 -0.000238753 0.0
0.15943 -0.000351526 0.0
0.0470618 -4.07626e-05 0.0
0.0893951 -0.00013296 0.0
0 0 0.0
0.160709 -0.000402719 0.0
0.188119 -0.000515968 0.0
0.247381 -0.000718177 0.0
0.249998 -0.000766159 0.0
0.240258 -0.000740586 0.0
0.227894 -0.000695869 0.0
0.247634 -0.000793717 0.0
0.239747 -0.000721399 0.0
0.22715 -0.00064119 0.0
0.186935 -0.000485568 0.0
0.209514 -0.000592418 0.0
0.210513 -0.000618103 0.0
0 0 0.0
0.0481098 -5.05337e-05 0.0
0.128378 -0.000300877 0.0
0.0908618 -0.000166006 0.0
0.126781 -0.000264268 0.0
0.159319 -0.000390244 0.0
0 0 0.0
0.0892835 -0.000147173 0.0
0.0469883 -4.48301e-05 0.0
0.188231 -0.00057425 0.0
0.160837 -0.000446474 0.0
0.227952 -0.000759121 0.0
0.247359 -0.000799449 0.0
0.249997 -0.000851934 0.0
0.247652 -0.000861851 0.0
0.240295 -0.000806073 0.0
0.239701 -0.000801314 0.0
0.227084 -0.000712594 0.0
0.186802 -0.000551531 0.0
0.209425 -0.000657895 0.0
0.210605 -0.000686097 0.0
0 0 0.0
0.0482043 -5.56142e-05 0.0
0.0909866 -0.000180718 0.0
0.128524 -0.000331845 0.0
0.126632 -0.000296269 0.0
0.159197 -0.000432015 0.0
0 0 0.0
0.0469002 -4.94042e-05 0.0
0.0891741 -0.000160375 0.0
0.188324 -0.000619781 0.0
0.160979 -0.000494228 0.0
0.228014 -0.000827321 0.0
0.240367 -0.000932239 0.0
0.247333 -0.000887708 0.0
0.249995 -0.000944544 0.0
0.247672 -0.00093375 0.0
0.239648 -0.000887833 0.0
0.227011 -0.000790085 0.0
0.186713 -0.000595289 0.0
0.209326 -0.00072763 0.0
0.210708 -0.000761138 0.0
0 0 0.0
0.0483093 -6.0894e-05 0.0
0.128714 -0.000372204 0.0
0.091155 -0.000201424 0.0
0.126509 -0.000322471 0.0
0.15906 -0.000477402 0.0
0.046812 -5.38363e-05 0.0
0 0 0.0
0.0890267 -0.000178491 0.0
0.161136 -0.000546465 0.0
0.188494 -0.000702764 0.0
0.228131 -0.000950039 0.0
0.240426 -0.0010349 0.0
0.247698 -0.00103546 0.0
0.24729 -0.00102669 0.0
0.249993 -0.00104744 0.0
0.23959 -0.000984027 0.0
0.226899 -0.000903061 0.0
0.186551 -0.000673184 0.0
0.209216 -0.000804783 0.0
0.210822 -0.000843004 0.0
0 0 0.0
0.0484232 -6.63874e-05 0.0
0.091324 -0.000220162 0.0
0.161311 -0.000602066 0.0
0.12887 -0.000403389 0.0
0.126352 -0.000355889 0.0
0.158941 -0.00051669 0.0
0.046709 -5.98351e-05 0.0
0 0 0.0
0.0888914 -0.000195429 0.0
0.210929 -0.000919569 0.0
0.18861 -0.000759852 0.0
0.240476 -0.00112221 0.0
0.228227 -0.00105554 0.0
0.247742 -0.00119724 0.0
0.24999 -0.00115826 0.0
0.247263 -0.00110966 0.0
0.239524 -0.00108651 0.0
0.226821 -0.000979494 0.0
0.186441 -0.000724642 0.0
0.158744 -0.000581725 0.0
0.209094 -0.000887034 0.0
0 0 0.0
0.0914934 -0.000239816 0.0
0.0485569 -7.32478e-05 0.0
0.161466 -0.000653628 0.0
0.129102 -0.000452524 0.0
0.126179 -0.000393317 0.0
0 0 0.0
0.0465952 -6.63317e-05 0.0
0.0887109 -0.00021838 0.0
0.211048 -0.00100178 0.0
0.188821 -0.000864924 0.0
0.240531 -0.00121673 0.0
0.228334 -0.00117092 0.0
0.247765 -0.00129776 0.0
0.249984 -0.00128104 0.0
0.247234 -0.00120097 0.0
0.158599 -0.000626658 0.0
0.208981 -0.000962419 0.0
0.23945 -0.00119712 0.0
0.226736 -0.00106242 0.0
0.186285 -0.000798953 0.0
0 0 0.0
0.0486877 -7.92752e-05 0.0
0.0916961 -0.000262574 0.0
0.161681 -0.000722284 0.0
0.129331 -0.000499451 0.0
0.0885276 -0.000241276 0.0
0.125958 -0.000440898 0.0
0 0 0.0
0.0464633 -7.42206e-05 0.0
0.211199 -0.00111084 0.0
0.189015 -0.0009601 0.0
0.240604 -0.00134769 0.0
0.228452 -0.00129979 0.0
0.247792 -0.00140581 0.0
0.249979 -0.00141692 0.0
0.247169 -0.00138224 0.0
0.158404 -0.000689666 0.0
0.239369 -0.00131989 0.0
0.208858 -0.00104081 0.0
0.226583 -0.00121047 0.0
0.186066 -0.000902717 0.0
0 0 0.0
0.0919459 -0.000291501 0.0
0.0488372 -8.6509e-05 0.0
0.161968 -0.000816747 0.0
0.129585 -0.000552345 0.0
0.0883477 -0.000264832 0.0
0.125745 -0.000488086 0.0
0 0 0.0
0.0463217 -8.29111e-05 0.0
0.189228 -0.0010687 0.0
0.211368 -0.00123471 0.0
0.240685 -0.00149623 0.0
0.247827 -0.00155354 0.0
0.228581 -0.00144357 0.0
0.249969 -0.0015629 0.0
0.247118 -0.00152745 0.0
0.239277 -0.00145068 0.0
0.249529 -0.0016837 0.0
0.158189 -0.000757857 0.0
0.226452 -0.00133102 0.0
0.208648 -0.00117496 0.0
0.185922 -0.000968057 0.0
0 0 0.0
0.0921761 -0.00031914 0.0
0.0490132 -9.57151e-05 0.0
0.162186 -0.000890931 0.0
0.129868 -0.000613193 0.0
0.0881287 -0.000293351 0.0
0.125548 -0.000530809 0.0
0 0 0.0
0.046174 -9.21403e-05 0.0
0.189468 -0.00119144 0.0
0.211556 -0.00137533 0.0
0.240767 -0.0016582 0.0
0.228723 -0.00160858 0.0
0.247876 -0.0018032 0.0
0.249137 -0.00167056 0.0
0.243754 -0.00160977 0.0
0.233387 -0.00150355 0.0
0.249944 -0.00181646 0.0
0.157957 -0.0008305 0.0
0.218039 -0.00135772 0.0
0.203248 -0.00122839 0.0
0.185661 -0.00108245 0.0
0 0 0.0
0.0924551 -0.000354791 0.0
0.0491954 -0.000104865 0.0
0.162485 -0.000996559 0.0
0.130187 -0.000685645 0.0
0.12526 -0.000592089 0.0
0.0878874 -0.000324579 0.0
0 0 0.0
0.0459934 -0.000102346 0.0
0.189736 -0.00133411 0.0
0.211763 -0.00153603 0.0
0.247904 -0.00199617 0.0
0.228876 -0.00179372 0.0
0.240861 -0.00184435 0.0
0.247017 -0.00177672 0.0
0.239101 -0.00168596 0.0
0.226203 -0.0015489 0.0
0.249915 -0.00200598 0.0
0.157703 -0.000907791 0.0
0.20833 -0.00136865 0.0
0.185428 -0.001181 0.0
0 0 0.0
0.0493901 -0.000115953 0.0
0.0927694 -0.000399153 0.0
0.13049 -0.000757888 0.0
0.190032 -0.00149768 0.0
0.162821 -0.0011209 0.0
0.124984 -0.000647535 0.0
0.0876231 -0.000357463 0.0
0.0458001 -0.00011362 0.0
0 0 0.0
0.229012 -0.0019674 0.0
0.211991 -0.00172324 0.0
0.247928 -0.0021652 0.0
0.240954 -0.00205623 0.0
0.226027 -0.00169087 0.0
0.246933 -0.00195425 0.0
0.238967 -0.00184792 0.0
0.249879 -0.00221527 0.0
0.185177 -0.00127999 0.0
0.157372 -0.000998734 0.0
0.208047 -0.00152727 0.0
0 0 0.0
0.0496198 -0.000132326 0.0
0.093166 -0.000458693 0.0
0.130887 -0.000859291 0.0
0.190276 -0.00164441 0.0
0.163278 -0.00130727 0.0
0.124689 -0.000701959 0.0
0.0873088 -0.000392969 0.0
0.0455905 -0.000124376 0.0
0 0 0.0
0.124369 -0.000755134 0.0
0.229155 -0.00215355 0.0
0.21232 -0.00201451 0.0
0.241088 -0.00240043 0.0
0.247946 -0.00234563 0.0
0.225755 -0.00189479 0.0
0.238817 -0.00201998 0.0
0.246835 -0.00214997 0.0
0.249822 -0.00244727 0.0
0.184902 -0.00137992 0.0
0.157068 -0.00107742 0.0
0.207801 -0.00165653 0.0
0 0 0.0
0.0498821 -0.000151061 0.0
0.0935814 -0.000527926 0.0
0.131339 -0.00098538 0.0
0.190635 -0.00186191 0.0
0.163714 -0.00149521 0.0
0.0453578 -0.000136828 0.0
0.0869946 -0.000425605 0.0
0 0 0.0
0.124081 -0.000793088 0.0
0.229339 -0.00242314 0.0
0.212601 -0.00227868 0.0
0.241183 -0.00268317 0.0
0.247956 -0.00260989 0.0
0.225558 -0.00202889 0.0
0.238642 -0.00220468 0.0
0.249749 -0.00270474 0.0
0.246655 -0.00246386 0.0
0.184675 -0.00145089 0.0
0.156741 -0.00114816 0.0
0.207527 -0.00178302 0.0
0 0 0.0
0.0501833 -0.000175293 0.0
0.0940599 -0.000612129 0.0
0.131934 -0.00116249 0.0
0.19113 -0.00219215 0.0
0.212903 -0.00258829 0.0
0.1642 -0.00172193 0.0
0.045125 -0.000145999 0.0
0.0866642 -0.000453544 0.0
0 0 0.0
0.123724 -0.000832095 0.0
0.229597 -0.00283976 0.0
0.241254 -0.00294241 0.0
0.247954 -0.00290501 0.0
0.249673 -0.002919 0.0
0.225344 -0.00216143 0.0
0.238428 -0.0024073 0.0
0.246492 -0.00270348 0.0
0.156388 -0.00121059 0.0
0.184349 -0.00154425 0.0
0.207216 -0.00191 0.0
0 0 0.0
0.0505604 -0.000207129 0.0
0.094621 -0.000720558 0.0
0.132537 -0.00135787 0.0
0.191463 -0.00243208 0.0
0.213223 -0.00293912 0.0
0.164747 -0.00199131 0.0
0.0448643 -0.000154501 0.0
0.0863174 -0.000475729 0.0
0 0 0.0
0.156087 -0.00124546 0.0
0.0859637 -0.000487795 0.0
0.123291 -0.000862071 0.0
0.229795 -0.00322434 0.0
0.241316 -0.00321634 0.0
0.247911 -0.00339625 0.0
0.249585 -0.00314378 0.0
0.246343 -0.0029076 0.0
0.225046 -0.00232814 0.0
0.238077 -0.00270863 0.0
0.183891 -0.00164656 0.0
0.206921 -0.00202127 0.0
0.229964 -0.00356354 0.0
0 0 0.0
0.0509825 -0.000245094 0.0
0.133231 -0.00159425 0.0
0.095275 -0.000853491 0.0
0.21357 -0.00335844 0.0
0.192063 -0.00289402 0.0
0.16536 -0.00231117 0.0
0.044583 -0.00015884 0.0
0 0 0.0
0.183581 -0.00170388 0.0
0.155682 -0.00128322 0.0
0.122896 -0.000877478 0.0
0.0442989 -0.000166171 0.0
0.0856008 -0.000493981 0.0
0.241388 -0.00361305 0.0
0.24786 -0.00369866 0.0
0.249425 -0.00347686 0.0
0.24928 -0.00375544 0.0
0.246162 -0.00312084 0.0
0.224694 -0.00250481 0.0
0.23775 -0.00294277 0.0
0.206589 -0.00211899 0.0
0.230116 -0.0039456 0.0
0.0514602 -0.00028993 0.0
0 0 0.0
0.133899 -0.0018264 0.0
0.096039 -0.00100873 0.0
0.213931 -0.00383618 0.0
0.192458 -0.00322243 0.0
0.166051 -0.0026901 0.0
0 0 0.0
0.183137 -0.00176118 0.0
0.155157 -0.00130421 0.0
0.122557 -0.000869901 0.0
0.0440357 -0.000166857 0.0
0.0852398 -0.000491565 0.0
0.241443 -0.00426175 0.0
0.247793 -0.00401916 0.0
0.249096 -0.00404723 0.0
0.245752 -0.00355471 0.0
0.224291 -0.00268012 0.0
0.237381 -0.00318848 0.0
0.20601 -0.00227245 0.0
0.230315 -0.00447714 0.0
0 0 0.0
0.0520519 -0.000347338 0.0
0.134794 -0.00214691 0.0
0.0968492 -0.00117716 0.0
0.166824 -0.00312613 0.0
0.214309 -0.0043903 0.0
0.193179 -0.00384501 0.0
0 0 0.0
0 0 0.0
0.182631 -0.00181145 0.0
0.154682 -0.00130792 0.0
0.122149 -0.000855569 0.0
0.0848904 -0.000481261 0.0
0.0437622 -0.000164703 0.0
0.241447 -0.00479508 0.0
0.247654 -0.00448921 0.0
0.237026 -0.00339985 0.0
0.248806 -0.00447642 0.0
0.245374 -0.00389963 0.0
0.223813 -0.00286604 0.0
0.205478 -0.00238287 0.0
0.241421 -0.00527777 0.0
0.23048 -0.0050803 0.0
0.0527547 -0.000412835 0.0
0.0978884 -0.00138789 0.0
0.135825 -0.00252391 0.0
0.167516 -0.00353555 0.0
0.214708 -0.00501564 0.0
0.193644 -0.0042927 0.0
0 0 0.0
0 0 0.0
0.154281 -0.00129304 0.0
0.181928 -0.00185057 0.0
0.0845884 -0.000461527 0.0
0.121674 -0.00082324 0.0
0.0434875 -0.000162385 0.0
0.247371 -0.00524537 0.0
0.248429 -0.00495759 0.0
0.204881 -0.0024887 0.0
0.23662 -0.00361532 0.0
0.245039 -0.00418927 0.0
0.223048 -0.00312156 0.0
0.24137 -0.00578226 0.0
0.2307 -0.006018 0.0
0.215112 -0.00573183 0.0
0.0536382 -0.000495065 0.0
0.099103 -0.00164374 0.0
0.137203 -0.00302597 0.0
0.168474 -0.00409835 0.0
0.194497 -0.0051254 0.0
0 0 0.0
0 0 0.0
0.153643 -0.00126416 0.0
0.181282 -0.00188142 0.0
0.0842482 -0.000433107 0.0
0.121266 -0.000786651 0.0
0.0432256 -0.000156074 0.0
0.244645 -0.00449958 0.0
0.247974 -0.00547591 0.0
0.247069 -0.00586586 0.0
0.204196 -0.00259463 0.0
0.236034 -0.00391154 0.0
0.222362 -0.00333583 0.0
0.180579 -0.00190689 0.0
0.241184 -0.00680451 0.0
0 0 0.0
0.2308 -0.0068331 0.0
0.195244 -0.00590583 0.0
0.215521 -0.00653062 0.0
0.0545922 -0.000585146 0.0
0.138389 -0.00346592 0.0
0.100682 -0.00197866 0.0
0.16977 -0.00490809 0.0
0 0 0.0
0 0 0.0
0 0 0.0
0 0 0.0
0 0 0.0
0.0430028 -0.000148325 0.0
0.120865 -0.000747303 0.0
0.153071 -0.00123935 0.0
0.083972 -0.000412448 0.0
0.244048 -0.00491846 0.0
0.24741 -0.00605602 0.0
0.246704 -0.00654631 0.0
0.22172 -0.00350193 0.0
0.203411 -0.00270434 0.0
0.235031 -0.0043617 0.0
0.20267 -0.00280054 0.0
0.179993 -0.00192429 0.0
0.240952 -0.00765006 0.0
0.230877 -0.00771988 0.0
0 0 0.0
9.53677e-05 -3.82655e-05 0.0
0 0 0.0
-0.000363073 0.00212664 0.0
0.215944 -0.00744377 0.0
0.195854 -0.00654807 0.0
0.0558314 -0.000705843 0.0
0.13995 -0.00404199 0.0
0.102364 -0.00233655 0.0
0.171012 -0.00569064 0.0
0 0 0.0
0 0 0.0
0 0 0.0
-0.000271316 0.00115922 0.0
-2.6466e-05 -0.00010477 0.0
2.70696e-05 -4.66386e-05 0.0
0 0 0.0
0.0427697 -0.000143511 0.0
0.120524 -0.000713221 0.0
0.152468 -0.00121698 0.0
0.0836693 -0.000389229 0.0
0.243343 -0.0053888 0.0
0.246734 -0.00669157 0.0
0.246233 -0.00729339 0.0
0.220999 -0.00369187 0.0
0.234348 -0.00465769 0.0
0.201851 -0.00290013 0.0
0.178945 -0.00196873 0.0
0.240655 -0.00857218 0.0
0.233797 -0.00864087 0.0
0.224206 -0.00848893 0.0
0 0 0.0
0.000124003 7.05131e-06 0.0
0 0 0.0
0 0 0.0
-0.0012847 0.00478158 0.0
-0.00124194 0.00314759 0.0
0.211851 -0.00814598 0.0
0.196707 -0.00750962 0.0
0.104121 -0.00271603 0.0
0.0571666 -0.000847522 0.0
0.141726 -0.00471925 0.0
0.172377 -0.00658264 0.0
0 0 0.0
-0.000446718 0.000574719 0.0
-0.000845888 0.00162942 0.0
-0.000280029 0.000219411 0.0
-0.000243995 0.000229809 0.0
0 0 0.0
0.04255 -0.000139773 0.0
0.12013 -0.000683155 0.0
0.151839 -0.00119611 0.0
0.0834062 -0.000373747 0.0
0.242508 -0.00589871 0.0
0.245931 -0.00738261 0.0
0.245648 -0.00811373 0.0
0.219641 -0.00403101 0.0
0.233583 -0.00495774 0.0
0.200778 -0.00304607 0.0
0.151188 -0.00120615 0.0
0.178014 -0.00202994 0.0
0.24034 -0.00936971 0.0
0.23088 -0.00943441 0.0
0.216638 -0.00927381 0.0
0 0 0.0
-0.000146562 0.000135582 0.0
0 0 0.0
0 0 0.0
0 0 0.0
0 0 0.0
-0.00224862 0.00335034 0.0
-0.000356671 0.00410953 0.0
-0.0013083 0.00618902 0.0
-0.00304728 0.00811237 0.0
-0.0025818 0.00555852 0.0
0 0 0.0
-5.94166e-05 0.00607151 0.0
0.197839 -0.00891943 0.0
0.173578 -0.00741806 0.0
0 0 0.0
0.0589287 -0.00104549 0.0
0.106366 -0.00323133 0.0
0.144076 -0.00569612 0.0
0 0 0.0
0 0 0.0
-0.00136 0.00162069 0.0
-0.00104278 0.000922566 0.0
-0.000981631 0.000637425 0.0