# vtk DataFile Version 3.0
Mesh NS-CD Problem
ASCII
DATASET UNSTRUCTURED_GRID
POINTS 10839 float
-2 0.3 0.0
-2 0.4 0.0
-2 0.35 0.0
-2 0.45 0.0
-2 0.5 0.0
-2 0.55 0.0
-2 0 0.0
-2 0.05 0.0
-2 0.85 0.0
-2 0.9 0.0
-2 0.1 0.0
-2 0.15 0.0
-2 0.25 0.0
-2 0.2 0.0
-1.96653 0.266667 0.0
-1.96524 0.415385 0.0
-1.96485 0.315 0.0
-1.96348 0.363636 0.0
-1.96414 0.464286 0.0
-2 0.6 0.0
-1.96538 0.584615 0.0
-1.96538 0.538462 0.0
-1.94979 0 0.0
-1.96653 0.0666666 0.0
-1.93306 0.0333333 0.0
-2 0.8 0.0
-2 0.75 0.0
-2 0.7 0.0
-2 0.65 0.0
-1.96249 0.7375 0.0
-1.96666 0.833333 0.0
-2 1 0.0
-2 0.95 0.0
-1.96249 0.8875 0.0
-1.96666 0.933333 0.0
-1.96234 0.1125 0.0
-1.96653 0.166667 0.0
-1.93724 0.225 0.0
-1.92971 0.28 0.0
-1.93048 0.380769 0.0
-1.93048 0.423077 0.0
-1.89958 0.3375 0.0
-1.9292 0.484203 0.0
-1.92117 0.530907 0.0
-1.96363 0.636364 0.0
-1.93076 0.576923 0.0
-1.89958 0 0.0
-1.88703 0.0375 0.0
-1.90963 0.08 0.0
-1.86611 0.0666666 0.0
-1.93749 0.775 0.0
-1.93635 0.672727 0.0
-1.92999 0.72 0.0
-1.93332 0.866667 0.0
-1.92856 0.821429 0.0
-1.94999 1 0.0
-1.92499 0.9625 0.0
-1.92499 0.925 0.0
-1.89998 0.9 0.0
-1.89958 0.125 0.0
-1.92827 0.178571 0.0
-1.89958 0.233333 0.0
-1.89045 0.290909 0.0
-1.86096 0.311538 0.0
-1.89241 0.392857 0.0
-1.89334 0.448489 0.0
-1.85655 0.357143 0.0
-1.89614 0.653846 0.0
-1.89427 0.504121 0.0
-1.8952 0.559753 0.0
-1.89614 0.615385 0.0
-1.84937 0 0.0
-1.83264 0.0333333 0.0
-1.85655 0.107143 0.0
-1.81172 0.075 0.0
-1.89998 0.766667 0.0
-1.89089 0.709091 0.0
-1.87498 0.85 0.0
-1.85998 0.79 0.0
-1.88748 0.8125 0.0
-1.89998 1 0.0
-1.88748 0.9625 0.0
-1.86664 0.933333 0.0
-1.85712 0.892857 0.0
-1.87448 0.15 0.0
-1.86611 0.194444 0.0
-1.83264 0.133333 0.0
-1.83264 0.2625 0.0
-1.82068 0.321429 0.0
-1.85664 0.404762 0.0
-1.85674 0.452381 0.0
-1.85683 0.5 0.0
-1.81184 0.375 0.0
-1.85712 0.642857 0.0
-1.85693 0.547619 0.0
-1.85702 0.595238 0.0
-1.79917 0 0.0
-1.78482 0.0357143 0.0
-1.79917 0.116667 0.0
-1.76569 0.0666666 0.0
-1.85452 0.745455 0.0
-1.82689 0.692308 0.0
-1.81815 0.781818 0.0
-1.82497 0.825 0.0
-1.84997 1 0.0
-1.8333 0.958333 0.0
-1.81247 0.8875 0.0
-1.81247 0.925 0.0
-1.81742 0.218182 0.0
-1.82427 0.175 0.0
-1.77634 0.145455 0.0
-1.79144 0.242308 0.0
-1.78482 0.285714 0.0
-1.77469 0.332653 0.0
-1.81215 0.529762 0.0
-1.81194 0.422619 0.0
-1.81203 0.470238 0.0
-1.76714 0.392857 0.0
-1.81234 0.625 0.0
-1.79732 0.571429 0.0
-1.74896 0 0.0
-1.73222 0.0333333 0.0
-1.75398 0.105 0.0
-1.71883 0.07 0.0
-1.79227 0.730769 0.0
-1.78007 0.679121 0.0
-1.75765 0.769231 0.0
-1.78178 0.818182 0.0
-1.78996 0.86 0.0
-1.79996 1 0.0
-1.78568 0.964286 0.0
-1.76663 0.922222 0.0
-1.76569 0.1875 0.0
-1.73222 0.15 0.0
-1.74896 0.25 0.0
-1.73714 0.304762 0.0
-1.76743 0.537202 0.0
-1.72869 0.343878 0.0
-1.76732 0.485119 0.0
-1.76723 0.440476 0.0
-1.72243 0.410714 0.0
-1.76757 0.607143 0.0
-1.69875 0 0.0
-1.68369 0.035 0.0
-1.69875 0.1125 0.0
-1.66528 0.075 0.0
-1.74341 0.708974 0.0
-1.73324 0.665934 0.0
-1.70441 0.74478 0.0
-1.71423 0.785714 0.0
-1.72303 0.826923 0.0
-1.74541 0.854545 0.0
-1.74541 0.890909 0.0
-1.74996 1 0.0
-1.73745 0.9625 0.0
-1.71359 0.927273 0.0
-1.68716 0.153846 0.0
-1.7131 0.214286 0.0
-1.70725 0.275 0.0
-1.69712 0.321939 0.0
-1.72279 0.589286 0.0
-1.72261 0.5 0.0
-1.7227 0.544643 0.0
-1.6827 0.355102 0.0
-1.67773 0.428571 0.0
-1.70763 0.464286 0.0
-1.70369 0.62449 0.0
-1.64854 0 0.0
-1.63181 0.0375 0.0
-1.64137 0.142857 0.0
-1.61764 0.0769231 0.0
-1.69458 0.703846 0.0
-1.67471 0.657437 0.0
-1.66143 0.727637 0.0
-1.67125 0.768571 0.0
-1.67851 0.821429 0.0
-1.68841 0.861538 0.0
-1.70904 0.890909 0.0
-1.69995 1 0.0
-1.68176 0.963636 0.0
-1.67267 0.927273 0.0
-1.65427 0.187143 0.0
-1.66718 0.231429 0.0
-1.66554 0.3 0.0
-1.67802 0.571429 0.0
-1.67792 0.523809 0.0
-1.6367 0.366327 0.0
-1.63682 0.423469 0.0
-1.62568 0.502976 0.0
-1.6629 0.470238 0.0
-1.65254 0.618367 0.0
-1.6059 0.307143 0.0
-1.59833 0 0.0
-1.58288 0.0384615 0.0
-1.60563 0.169643 0.0
-1.58179 0.112271 0.0
-1.56964 0.0714286 0.0
-1.64574 0.690385 0.0
-1.62827 0.751429 0.0
-1.63371 0.791071 0.0
-1.64279 0.857143 0.0
-1.65378 0.896154 0.0
-1.64994 1 0.0
-1.6363 0.963636 0.0
-1.61916 0.930769 0.0
-1.61345 0.209107 0.0
-1.62126 0.248571 0.0
-1.56989 0.196429 0.0
-1.63324 0.553571 0.0
-1.58846 0.535714 0.0
-1.59408 0.361905 0.0
-1.59161 0.402211 0.0
-1.58832 0.464286 0.0
-1.61504 0.598581 0.0
-1.59683 0.64359 0.0
-1.57899 0.274107 0.0
-1.56176 0.322381 0.0
-1.54812 0 0.0
-1.53378 0.0357143 0.0
-1.54593 0.147619 0.0
-1.53385 0.0732143 0.0
-1.53393 0.110714 0.0
-1.58522 0.704286 0.0
-1.58709 0.745 0.0
-1.58896 0.785714 0.0
-1.60695 0.830357 0.0
-1.60707 0.892857 0.0
-1.59993 1 0.0
-1.58454 0.965385 0.0
-1.57135 0.928571 0.0
-1.55209 0.241071 0.0
-1.5291 0.198214 0.0
-1.56936 0.570918 0.0
-1.54369 0.517857 0.0
-1.5464 0.380952 0.0
-1.54564 0.427721 0.0
-1.54488 0.47449 0.0
-1.55026 0.606122 0.0
-1.54222 0.677143 0.0
-1.52943 0.282857 0.0
-1.52143 0.33619 0.0
-1.49792 0 0.0
-1.49802 0.05 0.0
-1.49822 0.15 0.0
-1.49312 0.1 0.0
-1.5423 0.717143 0.0
-1.54419 0.767857 0.0
-1.54727 0.819048 0.0
-1.57122 0.861905 0.0
-1.53553 0.914286 0.0
-1.54992 1 0.0
-1.53563 0.964286 0.0
-1.49842 0.25 0.0
-1.48831 0.2 0.0
-1.5214 0.558929 0.0
-1.49891 0.5 0.0
-1.49871 0.4 0.0
-1.47631 0.45 0.0
-1.49911 0.6 0.0
-1.49921 0.65 0.0
-1.49931 0.7 0.0
-1.48111 0.35 0.0
-1.48351 0.3 0.0
-1.44771 0 0.0
-1.44782 0.05 0.0
-1.44804 0.15 0.0
-1.44793 0.1 0.0
-1.49941 0.75 0.0
-1.49951 0.8 0.0
-1.49981 0.95 0.0
-1.49961 0.85 0.0
-1.49971 0.9 0.0
-1.49991 1 0.0
-1.44826 0.25 0.0
-1.43815 0.2 0.0
-1.47151 0.55 0.0
-1.44881 0.5 0.0
-1.44859 0.4 0.0
-1.42619 0.45 0.0
-1.44913 0.65 0.0
-1.44902 0.6 0.0
-1.44935 0.75 0.0
-1.44924 0.7 0.0
-1.43972 0.35 0.0
-1.43336 0.3 0.0
-1.3975 0 0.0
-1.39762 0.05 0.0
-1.39786 0.15 0.0
-1.39274 0.1 0.0
-1.44957 0.85 0.0
-1.44946 0.8 0.0
-1.4523 0.95 0.0
-1.44968 0.9 0.0
-1.4499 1 0.0
-1.3981 0.25 0.0
-1.38798 0.2 0.0
-1.42141 0.55 0.0
-1.3987 0.5 0.0
-1.39834 0.35 0.0
-1.37845 0.4 0.0
-1.37607 0.45 0.0
-1.40784 0.65 0.0
-1.39894 0.6 0.0
-1.41185 0.75 0.0
-1.39918 0.7 0.0
-1.38322 0.3 0.0
-1.34729 0 0.0
-1.34492 0.05 0.0
-1.34018 0.15 0.0
-1.34255 0.1 0.0
-1.40707 0.85 0.0
-1.39941 0.8 0.0
-1.39977 0.95 0.0
-1.39965 0.9 0.0
-1.39989 1 0.0
-1.33781 0.2 0.0
-1.33544 0.25 0.0
-1.37131 0.55 0.0
-1.34859 0.5 0.0
-1.33833 0.4 0.0
-1.3307 0.35 0.0
-1.32595 0.45 0.0
-1.34885 0.6 0.0
-1.36655 0.65 0.0
-1.36179 0.75 0.0
-1.34911 0.7 0.0
-1.33307 0.3 0.0
-1.29708 0 0.0
-1.29722 0.05 0.0
-1.2975 0.15 0.0
-1.29236 0.1 0.0
-1.35703 0.85 0.0
-1.34937 0.8 0.0
-1.34988 1 0.0
-1.34962 0.9 0.0
-1.35226 0.95 0.0
-1.28528 0.25 0.0
-1.28764 0.2 0.0
-1.28931 0.35 0.0
-1.32121 0.55 0.0
-1.29848 0.5 0.0
-1.28709 0.45 0.0
-1.2982 0.4 0.0
-1.29876 0.6 0.0
-1.31647 0.65 0.0
-1.29918 0.75 0.0
-1.29904 0.7 0.0
-1.28292 0.3 0.0
-1.24687 0 0.0
-1.24702 0.05 0.0
-1.24717 0.1 0.0
-1.24732 0.15 0.0
-1.29946 0.85 0.0
-1.29932 0.8 0.0
-1.29987 1 0.0
-1.29974 0.95 0.0
-1.30462 0.9 0.0
-1.24762 0.25 0.0
-1.23747 0.2 0.0
-1.24792 0.35 0.0
-1.22807 0.4 0.0
-1.27111 0.55 0.0
-1.24837 0.5 0.0
-1.24822 0.45 0.0
-1.24867 0.6 0.0
-1.26639 0.65 0.0
-1.26167 0.75 0.0
-1.24897 0.7 0.0
-1.23277 0.3 0.0
-1.19667 0 0.0
-1.19683 0.05 0.0
-1.18964 0.15 0.0
-1.19198 0.1 0.0
-1.25695 0.85 0.0
-1.24927 0.8 0.0
-1.25223 0.95 0.0
-1.24987 1 0.0
-1.24957 0.9 0.0
-1.1873 0.2 0.0
-1.18496 0.25 0.0
-1.18028 0.35 0.0
-1.17794 0.4 0.0
-1.1981 0.45 0.0
-1.19842 0.55 0.0
-1.19826 0.5 0.0
-1.19858 0.6 0.0
-1.19874 0.65 0.0
-1.19906 0.75 0.0
-1.1989 0.7 0.0
-1.18262 0.3 0.0
-1.14646 0 0.0
-1.14663 0.05 0.0
-1.1418 0.1 0.0
-1.13713 0.2 0.0
-1.14697 0.15 0.0
-1.20691 0.85 0.0
-1.20926 0.8 0.0
-1.20221 0.95 0.0
-1.19986 1 0.0
-1.20456 0.9 0.0
-1.13997 0.3 0.0
-1.14731 0.25 0.0
-1.13781 0.4 0.0
-1.13014 0.35 0.0
-1.12548 0.45 0.0
-1.14815 0.5 0.0
-1.15962 0.55 0.0
-1.14849 0.6 0.0
-1.15745 0.65 0.0
-1.16155 0.75 0.0
-1.14917 0.8 0.0
-1.14883 0.7 0.0
-1.09625 0 0.0
-1.09661 0.1 0.0
-1.09393 0.05 0.0
-1.09697 0.2 0.0
-1.08929 0.15 0.0
-1.15687 0.85 0.0
-1.14985 1 0.0
-1.15219 0.95 0.0
-1.14951 0.9 0.0
-1.09733 0.3 0.0
-1.08465 0.25 0.0
-1.09769 0.4 0.0
-1.08 0.35 0.0
-1.08661 0.45 0.0
-1.09804 0.5 0.0
-1.12082 0.55 0.0
-1.10916 0.8 0.0
-1.10629 0.7 0.0
-1.0984 0.6 0.0
-1.11616 0.65 0.0
-1.11149 0.75 0.0
-1.04604 0 0.0
-1.04623 0.05 0.0
-1.04642 0.1 0.0
-1.0468 0.2 0.0
-1.03911 0.15 0.0
-1.09948 0.9 0.0
-1.0993 0.85 0.0
-1.09984 1 0.0
-1.09966 0.95 0.0
-1.04718 0.3 0.0
-1.03449 0.25 0.0
-1.04756 0.4 0.0
-1.02986 0.35 0.0
-1.04775 0.45 0.0
-1.04794 0.5 0.0
-1.04813 0.55 0.0
-1.05911 0.8 0.0
-1.04831 0.6 0.0
-1.06376 0.7 0.0
-1.0485 0.65 0.0
-1.04888 0.75 0.0
-0.995833 0 0.0
-0.991231 0.1 0.0
-0.996033 0.05 0.0
-0.986629 0.2 0.0
-0.98893 0.15 0.0
-1.05447 0.9 0.0
-1.04926 0.85 0.0
-1.04983 1 0.0
-1.04964 0.95 0.0
-0.984328 0.25 0.0
-0.99703 0.3 0.0
-0.997429 0.4 0.0
-0.997628 0.45 0.0
-0.979726 0.35 0.0
-0.997827 0.5 0.0
-0.998027 0.55 0.0
-0.998226 0.6 0.0
-0.961416 0.475 0.0
-1.00907 0.8 0.0
-0.998426 0.65 0.0
-0.998625 0.7 0.0
-1.01138 0.75 0.0
-0.945625 0 0.0
-0.946044 0.1 0.0
-0.943334 0.05 0.0
-0.946463 0.2 0.0
-0.938752 0.15 0.0
-1.00444 0.9 0.0
-1.00675 0.85 0.0
-0.999821 1 0.0
-1.00213 0.95 0.0
-0.93417 0.25 0.0
-0.946881 0.3 0.0
-0.9473 0.4 0.0
-0.929588 0.35 0.0
-0.925005 0.45 0.0
-0.960371 0.525 0.0
-0.959325 0.575 0.0
-0.958279 0.625 0.0
-0.922714 0.5 0.0
-0.959017 0.8 0.0
-0.957233 0.675 0.0
-0.952999 0.7125 0.0
-0.948766 0.75 0.0
-0.895417 0 0.0
-0.895855 0.1 0.0
-0.893136 0.05 0.0
-0.896294 0.2 0.0
-0.888573 0.15 0.0
-0.949184 0.85 0.0
-0.954415 0.9 0.0
-0.949812 1 0.0
-0.949603 0.95 0.0
-0.884011 0.25 0.0
-0.896733 0.3 0.0
-0.874887 0.45 0.0
-0.879449 0.35 0.0
-0.897171 0.4 0.0
-0.920423 0.55 0.0
-0.918132 0.6 0.0
-0.915841 0.65 0.0
-0.872606 0.5 0.0
-0.908968 0.8 0.0
-0.91355 0.7 0.0
-0.898707 0.75 0.0
-0.845208 0 0.0
-0.845438 0.05 0.0
-0.845667 0.1 0.0
-0.845896 0.15 0.0
-0.833853 0.25 0.0
-0.846126 0.2 0.0
-0.899146 0.85 0.0
-0.904386 0.9 0.0
-0.899584 0.95 0.0
-0.899804 1 0.0
-0.838062 0.35 0.0
[...]
POINT_DATA 10839
VECTORS Velocity float
0.21 0 0.0
0.24 0 0.0
0.2275 0 0.0
0.2475 0 0.0
0.25 0 0.0
0.2475 0 0.0
0 0 0.0
0.0475 0 0.0
0.1275 0 0.0
0.09 0 0.0
0.09 0 0.0
0.1275 0 0.0
0.1875 0 0.0
0.16 0 0.0
0.195564 -7.71911e-05 0.0
0.242832 -7.00779e-05 0.0
0.215776 -9.44246e-05 0.0
0.231401 -9.43969e-05 0.0
0.248711 -3.90316e-05 0.0
0.24 0 0.0
0.242832 3.60054e-05 0.0
0.248507 2.34354e-06 0.0
0 0 0.0
0.0622206 2.90804e-06 0.0
0.0322113 1.94336e-05 0.0
0.16 0 0.0
0.1875 0 0.0
0.21 0 0.0
0.2275 0 0.0
0.193602 5.8274e-05 0.0
0.138897 2.23352e-06 0.0
0 0 0.0
0.0475 0 0.0
0.0998442 -1.98599e-05 0.0
0.0622181 -7.20914e-06 0.0
0.0998522 6.22877e-06 0.0
0.138899 -1.84461e-05 0.0
0.174409 -0.000109427 0.0
0.201625 -0.000190904 0.0
0.23576 -0.000185125 0.0
0.244045 -0.000143574 0.0
0.223585 -0.000326153 0.0
0.249695 -5.67362e-05 0.0
0.248984 1.37776e-05 0.0
0.231398 5.92385e-05 0.0
0.244044 7.8685e-05 0.0
0 0 0.0
0.0359465 0.000112589 0.0
0.0735776 0.000147396 0.0
0.0620577 0.000311742 0.0
0.174403 6.76382e-05 0.0
0.220162 0.000128068 0.0
0.201622 0.000138688 0.0
0.115583 -5.13851e-05 0.0
0.146734 1.44565e-05 0.0
0 0 0.0
0.0360591 -4.09451e-05 0.0
0.0693452 -9.78769e-05 0.0
0.0900198 -0.000206185 0.0
0.109466 0.000126292 0.0
0.14674 -5.40369e-05 0.0
0.178994 -0.000230076 0.0
0.20633 -0.000365986 0.0
0.214513 -0.0005485 0.0
0.238445 -0.000308106 0.0
0.24723 -0.000188996 0.0
0.229508 -0.000546292 0.0
0.226303 0.000256944 0.0
0.249854 -3.52803e-05 0.0
0.246319 0.000102284 0.0
0.236621 0.00020256 0.0
0 0 0.0
0.0317328 0.000171308 0.0
0.0958235 0.000340854 0.0
0.0691445 0.000376746 0.0
0.178979 0.000158279 0.0
0.206311 0.000279884 0.0
0.127705 -0.000130323 0.0
0.166156 0.000202243 0.0
0.152504 5.36864e-05 0.0
0 0 0.0
0.0359305 -0.000117912 0.0
0.0620303 -0.000328624 0.0
0.0957917 -0.000374954 0.0
0.127737 8.3131e-05 0.0
0.156901 -0.0001872 0.0
0.116035 0.000222146 0.0
0.19383 -0.000660257 0.0
0.218104 -0.00086036 0.0
0.240753 -0.000433939 0.0
0.247498 -0.000269682 0.0
0.249743 -7.13623e-05 0.0
0.234128 -0.000813985 0.0
0.229499 0.000410602 0.0
0.247495 0.000126326 0.0
0.240742 0.000301491 0.0
0 0 0.0
0.0336063 0.000140997 0.0
0.103605 0.000211677 0.0
0.0618358 1.30656e-05 0.0
0.189914 0.000403875 0.0
0.213047 0.000662483 0.0
0.171037 0.000476301 0.0
0.144929 7.20839e-05 0.0
0 0 0.0
0.039395 -0.000239772 0.0
0.100209 -0.000361008 0.0
0.0690868 -0.000413154 0.0
0.171108 -0.000585889 0.0
0.144978 -0.000172652 0.0
0.125344 -0.000322713 0.0
0.184129 -0.00100123 0.0
0.204295 -0.00123967 0.0
0.221843 -0.00133439 0.0
0.248627 0.000101052 0.0
0.243614 -0.000586538 0.0
0.248633 -0.000289032 0.0
0.237943 -0.00111292 0.0
0.234103 0.000645268 0.0
0.244392 0.000436272 0.0
0 0 0.0
0.0314457 -8.42271e-05 0.0
0.0946046 -0.000436729 0.0
0.0653512 -0.000847882 0.0
0.197028 0.000954402 0.0
0.217808 0.0011189 0.0
0.178291 0.00127886 0.0
0.149699 0.000509191 0.0
0.121209 -1.19329e-05 0.0
0 0 0.0
0.0335658 -0.000154849 0.0
0.0715352 8.40525e-06 0.0
0.153489 -0.000911781 0.0
0.12894 -0.00143886 0.0
0.188188 -0.00169313 0.0
0.211911 -0.00199154 0.0
0.247763 0.000282644 0.0
0.225157 -0.00195396 0.0
0.248908 -0.000262895 0.0
0.245674 -0.000705015 0.0
0.240903 -0.00140204 0.0
0.237914 0.000883764 0.0
0 0 0.0
0.0338611 -0.0004647 0.0
0.101275 -0.0023853 0.0
0.0716324 -0.00248548 0.0
0.206455 0.00171074 0.0
0.222068 0.00172461 0.0
0.190711 0.00260481 0.0
0.169563 0.00224688 0.0
0.14458 0.00178615 0.0
0.125501 0.000895682 0.0
0.0978969 0.000638855 0.0
0 0 0.0
0.0352148 7.77308e-05 0.0
0.0677806 0.0010013 0.0
0.131907 -0.00339337 0.0
0.169683 -0.00238817 0.0
0.199759 -0.00270632 0.0
0.217888 -0.00275514 0.0
0.240867 0.00111139 0.0
0.248573 -0.000124606 0.0
0.246636 0.000533778 0.0
0.227941 -0.00271343 0.0
0.242937 -0.00162408 0.0
0.247129 -0.000733625 0.0
0.233404 0.00182709 0.0
0 0 0.0
0.038448 -0.00102752 0.0
0.124499 -0.00588845 0.0
0.0762945 -0.00411527 0.0
0.208345 0.00275291 0.0
0.224165 0.00279457 0.0
0.198297 0.0039778 0.0
0.178803 0.00383923 0.0
0.148184 0.00372336 0.0
0.12084 0.00311705 0.0
0.0982779 0.00184762 0.0
0 0 0.0
0.035159 0.000507209 0.0
0.0691313 0.00211021 0.0
0.153676 -0.00516405 0.0
0.17891 -0.00421486 0.0
0.209696 -0.0037833 0.0
0.242911 0.00130717 0.0
0.247211 0.000325792 0.0
0.230108 -0.00359845 0.0
0.241316 -0.00226277 0.0
0.246423 -9.49985e-05 0.0
0.246596 -0.000842633 0.0
0.23396 0.00262919 0.0
0.211407 -0.00599866 0.0
0 0 0.0
0.042591 -0.00151889 0.0
0.14242 -0.00847942 0.0
0.105997 -0.00825373 0.0
0.0759917 -0.00478841 0.0
0.212881 0.00407353 0.0
0.186961 0.00580117 0.0
0.166197 0.00601584 0.0
0.124371 0.00580262 0.0
0.0956001 0.00417122 0.0
0 0 0.0
0.03691 0.000917663 0.0
0.0693565 0.00338346 0.0
0.166196 -0.00758998 0.0
0.187048 -0.00639932 0.0
0.158238 -0.0110298 0.0
0.243972 0.00135889 0.0
0.243977 0.00112788 0.0
0.227902 -0.00500768 0.0
0.236554 -0.00375263 0.0
0.244048 -0.0015502 0.0
0.237051 0.00287971 0.0
0.226423 0.00472494 0.0
0.197642 -0.00835901 0.0
0.215282 -0.00771056 0.0
0 0 0.0
0.0434393 -0.00160334 0.0
0.130253 -0.012224 0.0
0.0816268 -0.00567612 0.0
0.108974 -0.0099669 0.0
0.206439 0.00705063 0.0
0.189107 0.00813015 0.0
0.168379 0.00906129 0.0
0.142226 0.0082823 0.0
0.100396 0.00660556 0.0
0 0 0.0
0.0381543 0.00122384 0.0
0.0756629 0.00471813 0.0
0.181628 -0.0113357 0.0
0.158799 -0.014129 0.0
0.239782 0.00281884 0.0
0.242865 0.00064509 0.0
0.230578 -0.00596329 0.0
0.238601 -0.00376599 0.0
0.242648 -0.00150526 0.0
0.233266 0.00482283 0.0
0.214427 0.00840553 0.0
0.199448 -0.0113963 0.0
0.217828 -0.00926079 0.0
0 0 0.0
0.0632455 -0.00316369 0.0
0.134168 -0.0147311 0.0
0.106933 -0.0097197 0.0
0.199716 0.0101309 0.0
0.176611 0.0119854 0.0
0.149029 0.0127073 0.0
0.122941 0.0101698 0.0
0.091314 0.00708047 0.0
0 0 0.0
0.0430942 0.00157408 0.0
0.183826 -0.0151514 0.0
0.159623 -0.0169606 0.0
0.238825 0.00313794 0.0
0.240618 -0.000247618 0.0
0.231746 -0.00669285 0.0
0.236915 -0.00391609 0.0
0.2316 0.00617048 0.0
0.220309 0.00927625 0.0
0.204263 0.0122255 0.0
0.219371 -0.0107128 0.0
0.203669 -0.0137244 0.0
0 0 0.0
0.0690609 -0.00305305 0.0
0.138305 -0.0161709 0.0
0.113158 -0.00997391 0.0
0.183571 0.0147683 0.0
0.159248 0.0160036 0.0
0.0627693 0.00311317 0.0
0.13367 0.0145231 0.0
0.105626 0.00951659 0.0
0 0 0.0
0.181949 -0.0186773 0.0
0.160372 -0.019474 0.0
0.236434 0.0034597 0.0
0.236871 -0.000300976 0.0
0.228162 -0.00855175 0.0
0.232749 -0.00491897 0.0
0.216811 0.012026 0.0
0.227991 0.00800172 0.0
0.181546 0.0182775 0.0
0.201197 0.0156015 0.0
0.216362 -0.0130237 0.0
0.20054 -0.0169954 0.0
0 0 0.0
0.0747449 -0.00274369 0.0
0.143629 -0.0162633 0.0
0.121209 -0.00943553 0.0
0.137834 0.0159084 0.0
0.159691 0.018779 0.0
0.0682082 0.00303461 0.0
0.112507 0.00981714 0.0
0 0 0.0
0.180574 -0.0210183 0.0
0.162349 -0.0204749 0.0
0.232206 0.00440807 0.0
0.232205 -0.000334692 0.0
0.212974 -0.0150732 0.0
0.221677 -0.0110705 0.0
0.227731 -0.00584405 0.0
0.213397 0.0141119 0.0
0.223464 0.00978417 0.0
0.180378 0.0201176 0.0
0.197891 0.0182767 0.0
0.197383 -0.0194224 0.0
0 0 0.0
0.0797122 -0.00243859 0.0
0.15058 -0.0148552 0.0
0.128277 -0.00830318 0.0
0.142122 0.016042 0.0
0.161289 0.020027 0.0
0.0738776 0.00273367 0.0
0.119697 0.00935189 0.0
0 0 0.0
0.165393 -0.0197871 0.0
0.180119 -0.0215769 0.0
0.227055 0.00522729 0.0
0.226608 -0.000386076 0.0
0.217447 -0.0120038 0.0
0.207028 -0.0170281 0.0
0.221968 -0.0064763 0.0
0.218299 0.0110942 0.0
0.209807 0.0156371 0.0
0.179617 0.0211703 0.0
0.19492 0.0196499 0.0
0.194606 -0.0203616 0.0
0 0 0.0
0.083468 -0.00197755 0.0
0.155848 -0.0131164 0.0
0.134609 -0.00681412 0.0
0.147968 0.0150563 0.0
0.164057 0.0196334 0.0
0 0 0.0
0.126708 0.00820483 0.0
0.0784667 0.00233905 0.0
0.180803 -0.0200861 0.0
0.169131 -0.0177459 0.0
0.203684 -0.0169568 0.0
0.221242 0.00570956 0.0
0.220469 -0.000435185 0.0
0.217301 -0.00663081 0.0
0.213207 -0.0123199 0.0
0.212897 0.0114989 0.0
0.205404 0.016362 0.0
0.179874 0.0199876 0.0
0.192552 0.0193532 0.0
0.192535 -0.0196395 0.0
0 0 0.0
0.0868269 -0.00144718 0.0
0.139389 -0.00542716 0.0
0.161494 -0.0106891 0.0
0.1549 0.0127383 0.0
0.167595 0.0177669 0.0
0 0 0.0
0.0826783 0.00185937 0.0
0.132343 0.00689559 0.0
0.181769 -0.0181463 0.0
0.173082 -0.0148737 0.0
0.20069 -0.0159646 0.0
0.206097 -0.0113598 0.0
0.215198 0.00566707 0.0
0.214243 -0.000516276 0.0
0.21269 -0.00646267 0.0
0.207728 0.0108719 0.0
0.201465 0.0156497 0.0
0.180712 0.0181896 0.0
0.190939 0.0174815 0.0
0.19124 -0.0175168 0.0
0 0 0.0
0.0892529 -0.000997819 0.0
0.167226 -0.00786131 0.0
0.144129 -0.00384255 0.0
0.159726 0.0106418 0.0
0.171391 0.0149368 0.0
0.0856229 0.00141052 0.0
0 0 0.0
0.138163 0.00516202 0.0
0.176738 -0.0117668 0.0
0.183626 -0.0141209 0.0
0.196839 -0.0130152 0.0
0.201947 -0.00980567 0.0
0.207266 -0.00583284 0.0
0.207004 0.00471414 0.0
0.20848 -0.000586489 0.0
0.203147 0.00937765 0.0
0.197137 0.0128463 0.0
0.182368 0.0141582 0.0
0.189981 0.0145782 0.0
0.190504 -0.0145571 0.0
0 0 0.0
0.0910667 -0.000691438 0.0
0.147196 -0.00274675 0.0
0.179876 -0.00887664 0.0
0.170495 -0.0060457 0.0
0.164638 0.00809141 0.0
0.174337 0.012391 0.0
0.087887 0.000959916 0.0
0 0 0.0
0.141977 0.00385028 0.0
0.190244 -0.0119311 0.0
0.184902 -0.0117092 0.0
0.199169 -0.00832945 0.0
0.194874 -0.0104188 0.0
0.200838 -0.0045929 0.0
0.203538 -0.000681442 0.0
0.203405 0.00391237 0.0
0.199384 0.00743318 0.0
0.195243 0.0106101 0.0
0.183545 0.0116075 0.0
0.178162 0.00865267 0.0
0.189458 0.0113174 0.0
0 0 0.0
0.149322 -0.00195867 0.0
0.0922 -0.000509377 0.0
0.182031 -0.00690008 0.0
0.173968 -0.00412359 0.0
0.168592 0.00578096 0.0
0 0 0.0
0.0894384 0.000589233 0.0
0.145333 0.0025028 0.0
0.190173 -0.00948344 0.0
0.186593 -0.00817006 0.0
0.19698 -0.00693459 0.0
0.193442 -0.00802057 0.0
0.198348 -0.00392598 0.0
0.199648 -0.000781599 0.0
0.200296 0.00304902 0.0
0.180202 0.00651197 0.0
0.189285 0.00865962 0.0
0.196514 0.00542871 0.0
0.193709 0.00834708 0.0
0.184857 0.00842994 0.0
0 0 0.0
0.092848 -0.000342568 0.0
0.150976 -0.00136201 0.0
0.184082 -0.0049872 0.0
0.176152 -0.00292421 0.0
0.147362 0.00157543 0.0
0.171917 0.00365995 0.0
0 0 0.0
0.0905745 0.000314468 0.0
0.190241 -0.00707227 0.0
0.18779 -0.00600009 0.0
0.19491 -0.00537406 0.0
0.192505 -0.00608111 0.0
0.196283 -0.00335389 0.0
0.196667 -0.000925594 0.0
0.195986 0.00152217 0.0
0.182154 0.00429896 0.0
0.19435 0.00362311 0.0
0.189171 0.00632574 0.0
0.191947 0.00505713 0.0
0.186193 0.00519345 0.0
0 0 0.0
0.152225 -0.000940483 0.0
0.0935902 -0.000221386 0.0
0.185882 -0.00338698 0.0
0.177719 -0.00212144 0.0
0.148645 0.000940585 0.0
0.173959 0.00228024 0.0
0 0 0.0
0.0909314 0.00020493 0.0
0.188691 -0.00443154 0.0
0.190363 -0.00526761 0.0
0.193477 -0.00419582 0.0
0.194357 -0.00278889 0.0
0.19189 -0.00463126 0.0
0.194562 -0.00108143 0.0
0.194041 0.000647452 0.0
0.192827 0.0021463 0.0
0.19346 -0.00187892 0.0
0.183594 0.00264111 0.0
0.191123 0.00315128 0.0
0.189123 0.00353287 0.0
0.186789 0.00368112 0.0
0 0 0.0
0.15301 -0.000751774 0.0
0.0939882 -0.000221327 0.0
0.186814 -0.00270142 0.0
0.17887 -0.00161828 0.0
0.149515 0.000442108 0.0
0.175144 0.00140493 0.0
0 0 0.0
0.0912566 5.56928e-05 0.0
0.189411 -0.00337165 0.0
0.190547 -0.00400912 0.0
0.192494 -0.00337931 0.0
0.191526 -0.00365764 0.0
0.192576 -0.00233939 0.0
0.193235 -0.000546286 0.0
0.192489 0.000682281 0.0
0.191311 0.00162451 0.0
0.19253 -0.00137023 0.0
0.184525 0.00142903 0.0
0.189867 0.00213395 0.0
0.188703 0.00209023 0.0
0.18746 0.00180259 0.0
0 0 0.0
0.153658 -0.000659178 0.0
0.0943283 -0.00019687 0.0
0.187687 -0.00215437 0.0
0.179738 -0.00134864 0.0
0.176153 0.000568056 0.0
0.149996 9.49732e-05 0.0
0 0 0.0
0.0914558 -5.88969e-05 0.0
0.189984 -0.00272097 0.0
0.190729 -0.00320517 0.0
0.191819 -0.00223847 0.0
0.191327 -0.0030602 0.0
0.191874 -0.00288061 0.0
0.192074 -0.00039976 0.0
0.191267 0.000411055 0.0
0.190221 0.000945506 0.0
0.191685 -0.00159538 0.0
0.185121 0.000572284 0.0
0.189052 0.00113395 0.0
0.187764 0.000752815 0.0
0 0 0.0
0.0945541 -0.000206851 0.0
0.154243 -0.000642186 0.0
0.180347 -0.00124673 0.0
0.190451 -0.0023766 0.0
0.188366 -0.00187159 0.0
0.176624 6.44997e-05 0.0
0.150176 -0.000120629 0.0
0.091278 -7.14031e-05 0.0
0 0 0.0
0.191254 -0.00279447 0.0
0.190934 -0.002758 0.0
0.191428 -0.00226308 0.0
0.191478 -0.00264595 0.0
0.18985 2.49465e-05 0.0
0.191278 -0.000936537 0.0
0.19064 -0.000368125 0.0
0.191121 -0.00185918 0.0
0.187913 -1.71224e-05 0.0
0.185454 -0.000152513 0.0
0.188941 -3.42596e-05 0.0
0 0 0.0
0.0950139 -0.000219284 0.0
0.154786 -0.000683529 0.0
0.180934 -0.00121959 0.0
0.190782 -0.00227015 0.0
0.189073 -0.00179798 0.0
0.176786 -0.000293078 0.0
0.150164 -0.000293068 0.0
0.0911099 -0.000117424 0.0
0 0 0.0
0.176887 -0.000570806 0.0
0.191236 -0.00267894 0.0
0.191198 -0.00257032 0.0
0.191182 -0.00264364 0.0
0.191144 -0.00235771 0.0
0.18946 -0.000900688 0.0
0.190187 -0.000994406 0.0
0.190727 -0.00140793 0.0
0.190726 -0.00216586 0.0
0.18795 -0.000601308 0.0
0.185574 -0.000589444 0.0
0.188815 -0.000695144 0.0
0 0 0.0
0.0954311 -0.000225672 0.0
0.155352 -0.000769754 0.0
0.18149 -0.00131585 0.0
0.191165 -0.00228461 0.0
0.18958 -0.00188715 0.0
0.0907819 -0.000151446 0.0
0.150039 -0.000419686 0.0
0 0 0.0
0.176725 -0.000756992 0.0
0.191281 -0.00273868 0.0
0.19143 -0.00264575 0.0
0.191096 -0.00282394 0.0
0.19089 -0.00258329 0.0
0.189245 -0.00136225 0.0
0.189839 -0.00152777 0.0
0.190449 -0.00252571 0.0
0.190179 -0.0020425 0.0
0.187876 -0.000955035 0.0
0.185504 -0.000941133 0.0
0.188649 -0.00122763 0.0
0 0 0.0
0.095966 -0.000276679 0.0
0.155881 -0.000904033 0.0
0.182107 -0.00150658 0.0
0.191627 -0.00251179 0.0
0.191672 -0.00288089 0.0
0.190073 -0.00209891 0.0
0.0906041 -0.000194452 0.0
0.149716 -0.00053353 0.0
0 0 0.0
0.176507 -0.000951518 0.0
0.1914 -0.00304378 0.0
0.191067 -0.00306627 0.0
0.190727 -0.00290823 0.0
0.19028 -0.002836 0.0
0.189035 -0.00177494 0.0
0.189535 -0.00202373 0.0
0.189898 -0.00248779 0.0
0.185378 -0.0012473 0.0
0.187723 -0.00136673 0.0
0.188432 -0.00168914 0.0
0 0 0.0
0.0964888 -0.000396255 0.0
0.156628 -0.00108194 0.0
0.182755 -0.00178107 0.0
0.191931 -0.00275961 0.0
0.191926 -0.00323403 0.0
0.190595 -0.00240445 0.0
0.0902774 -0.000246568 0.0
0.149377 -0.000631034 0.0
0 0 0.0
0.1851 -0.00146594 0.0
0.148874 -0.000714477 0.0
0.176055 -0.00116024 0.0
0.191534 -0.00346066 0.0
0.19106 -0.0033659 0.0
0.190569 -0.00354339 0.0
0.190142 -0.0031765 0.0
0.189706 -0.0028561 0.0
0.188772 -0.00224325 0.0
0.189161 -0.00269996 0.0
0.187408 -0.00182011 0.0
0.188218 -0.0020635 0.0
0.191669 -0.00387461 0.0
0 0 0.0
0.0971719 -0.000469565 0.0
0.183501 -0.00212412 0.0
0.157457 -0.00132866 0.0
0.192223 -0.00374582 0.0
0.192441 -0.00331128 0.0
0.191129 -0.00282669 0.0
0.0899407 -0.000271081 0.0
0 0 0.0
0.187185 -0.00209354 0.0
0.18478 -0.00173792 0.0
0.175711 -0.00135254 0.0
0.0893139 -0.000253039 0.0
0.148455 -0.000819248 0.0
0.191089 -0.00387359 0.0
0.190503 -0.00397152 0.0
0.189958 -0.00370066 0.0
0.189827 -0.00415551 0.0
0.189513 -0.00324728 0.0
0.18847 -0.00271763 0.0
0.188862 -0.00321112 0.0
0.187946 -0.00241852 0.0
0.191785 -0.00438027 0.0
0.0979042 -0.000582525 0.0
0 0 0.0
0.184116 -0.00247725 0.0
0.158366 -0.00161309 0.0
0.192527 -0.00438777 0.0
0.19279 -0.00375456 0.0
0.191759 -0.0033656 0.0
0 0 0.0
0.186787 -0.00244648 0.0
0.184203 -0.0020701 0.0
0.175167 -0.00150893 0.0
0.0889124 -0.000294539 0.0
0.147806 -0.00092803 0.0
0.191126 -0.00478412 0.0
0.190443 -0.00445306 0.0
0.189674 -0.00464999 0.0
0.189151 -0.00405759 0.0
0.188135 -0.00320257 0.0
0.188552 -0.00376046 0.0
0.187466 -0.0029884 0.0
0.191977 -0.0051437 0.0
0 0 0.0
0.0990278 -0.000698248 0.0
0.185006 -0.00300731 0.0
0.159405 -0.0019447 0.0
0.192421 -0.00403857 0.0
0.192867 -0.00519365 0.0
0.193412 -0.00464748 0.0
0 0 0.0
0 0 0.0
0.186314 -0.00282883 0.0
0.18374 -0.00237519 0.0
0.174626 -0.00170836 0.0
0.147123 -0.00103943 0.0
0.088374 -0.000356149 0.0
0.191145 -0.00559729 0.0
0.19033 -0.00519455 0.0
0.188262 -0.00423476 0.0
0.189448 -0.00539898 0.0
0.188842 -0.00472316 0.0
0.187735 -0.00372983 0.0
0.186996 -0.0034515 0.0
0.19114 -0.0063654 0.0
0.192124 -0.00606939 0.0
0.100393 -0.000851164 0.0
0.160679 -0.00236305 0.0
0.186077 -0.00367955 0.0
0.1931 -0.00470228 0.0
0.193229 -0.00616204 0.0
0.193826 -0.00536684 0.0
0 0 0.0
0 0 0.0
0.183173 -0.00261729 0.0
0.185586 -0.00332405 0.0
0.146363 -0.00114284 0.0
0.173767 -0.00195178 0.0
0.0877346 -0.000388474 0.0
0.190131 -0.00645536 0.0
0.189148 -0.00626928 0.0
0.186465 -0.00395299 0.0
0.187927 -0.00474416 0.0
0.188573 -0.00529656 0.0
0.187088 -0.00450682 0.0
0.191114 -0.00720545 0.0
0.192351 -0.00761454 0.0
0.19359 -0.00736496 0.0
0.10195 -0.00111086 0.0
0.162385 -0.00292562 0.0
0.187492 -0.00471362 0.0
0.193957 -0.00567523 0.0
0.194582 -0.00677803 0.0
0 0 0.0
0 0 0.0
0.182307 -0.00300648 0.0
0.184925 -0.00376863 0.0
0.145467 -0.00127894 0.0
0.172942 -0.00217914 0.0
0.0870162 -0.000423224 0.0
0.188256 -0.00592166 0.0
0.188777 -0.00723931 0.0
0.189873 -0.00754331 0.0
0.185832 -0.00448901 0.0
0.187448 -0.00545398 0.0
0.186501 -0.00516266 0.0
0.184153 -0.00423983 0.0
0.190937 -0.00899344 0.0
0 0 0.0
0.192397 -0.00906438 0.0
0.195245 -0.00820261 0.0
0.193922 -0.00878289 0.0
0.103888 -0.00138947 0.0
0.188879 -0.0056642 0.0
0.164693 -0.00380391 0.0
0.195164 -0.00727743 0.0
0 0 0.0
0 0 0.0
0 0 0.0
0 0 0.0
0 0 0.0
0.08629 -0.000457992 0.0
0.172099 -0.00242685 0.0
0.181489 -0.0033631 0.0
0.144639 -0.00139192 0.0
0.187761 -0.00679645 0.0
0.188285 -0.00834913 0.0
0.18955 -0.00877626 0.0
0.185934 -0.00572094 0.0
0.185079 -0.00507165 0.0
0.186599 -0.00656714 0.0
0.184363 -0.00559649 0.0
0.183457 -0.00460471 0.0
0.190641 -0.0105518 0.0
0.19238 -0.0106916 0.0
0 0 0.0
-0.000511315 0.000276587 0.0
0 0 0.0
-0.000650946 0.00701395 0.0
0.194226 -0.0105382 0.0
0.195776 -0.00948708 0.0
0.106544 -0.00180751 0.0
0.190609 -0.00703033 0.0
0.167267 -0.00489358 0.0
0.196384 -0.00903704 0.0
0 0 0.0
0 0 0.0
0 0 0.0
-0.000511801 0.005223 0.0
-0.000447369 0.00157905 0.0
-0.00129297 0.00135497 0.0
0 0 0.0
0.0854493 -0.000498232 0.0
0.171168 -0.00263562 0.0
0.180525 -0.00373872 0.0
0.14342 -0.00154289 0.0
0.187159 -0.00778592 0.0
0.187655 -0.00959002 0.0
0.189074 -0.0101676 0.0
0.185282 -0.00633255 0.0
0.186002 -0.0072871 0.0
0.183536 -0.00613986 0.0
0.182178 -0.00525157 0.0
0.190212 -0.0122985 0.0
0.19172 -0.0124409 0.0
0.193316 -0.0123704 0.0
0 0 0.0
-0.00161869 0.000494762 0.0
0 0 0.0
0 0 0.0
-0.00218092 0.0111887 0.0
-0.00204458 0.00871328 0.0
0.194902 -0.0121906 0.0
0.196428 -0.0115997 0.0
0.170059 -0.00619599 0.0
0.109698 -0.00240204 0.0
0.192685 -0.00887451 0.0
0.197599 -0.0112656 0.0
0 0 0.0
-0.00137183 0.0044066 0.0
-0.00167261 0.00645493 0.0
-0.00181203 0.00303211 0.0
-0.00298612 0.00181796 0.0
0 0 0.0
0.0845406 -0.00054023 0.0
0.170028 -0.00289079 0.0
0.179413 -0.00411813 0.0
0.142232 -0.00168066 0.0
0.186407 -0.00886956 0.0
0.186852 -0.0109455 0.0
0.188414 -0.0117339 0.0
0.184033 -0.00741167 0.0
0.185313 -0.00803516 0.0
0.182425 -0.00682184 0.0
0.178263 -0.00452414 0.0
0.181019 -0.00579348 0.0
0.189685 -0.0138627 0.0
0.191956 -0.0141229 0.0
0.194417 -0.0143986 0.0
0 0 0.0
-0.00325879 0.000563436 0.0
0 0 0.0
0 0 0.0
0 0 0.0
0 0 0.0
-0.00361958 0.00747381 0.0
-0.000901527 0.0109292 0.0
-0.00247663 0.0134773 0.0
-0.00473656 0.0130318 0.0
-0.00377679 0.0103701 0.0
0 0 0.0
-0.000875443 0.0204033 0.0
0.197046 -0.0149643 0.0
0.198628 -0.0134829 0.0
0 0 0.0
0.114329 -0.00338977 0.0
0.173971 -0.00801405 0.0
0.195537 -0.012009 0.0
0 0 0.0
0 0 0.0
-0.00317439 0.00545536 0.0
-0.00373483 0.00351843 0.0
-0.00482029 0.00174927 0.0
0 0 0.0
0.0835019 -0.000582536 0.0
0.168575 -0.00318891 0.0
0.140892 -0.0018127 0.0
0.177123 -0.00482598 0.0
0.185485 -0.0100467 0.0
0.186104 -0.0120448 0.0
0.187538 -0.0134825 0.0
0.183102 -0.00810488 0.0
0.184302 -0.00903305 0.0
0.181171 -0.00751709 0.0
0.180001 -0.00619101 0.0
0.192888 -0.0159557 0.0
0.188968 -0.0155765 0.0
0.191099 -0.0174892 0.0
0.194069 -0.0181391 0.0
0.197315 -0.0185001 0.0
0 0 0.0
-0.00431006 0.000446727 0.0
-0.00110475 0.0188566 0.0
-0.00367068 0.0246401 0.0
-0.00109484 0.0137641 0.0
-0.00511367 0.00793573 0.0
-0.00603163 0.0050378 0.0
-0.0034981 0.0178513 0.0
-0.00595041 0.0161837 0.0