# vtk DataFile Version 3.0
Mesh NS-CD Problem
ASCII
DATASET UNSTRUCTURED_GRID
POINTS 10839 float
-2 0.3 0.0
-2 0.4 0.0
-2 0.35 0.0
-2 0.45 0.0
-2 0.5 0.0
-2 0.55 0.0
-2 0 0.0
-2 0.05 0.0
-2 0.85 0.0
-2 0.9 0.0
-2 0.1 0.0
-2 0.15 0.0
-2 0.25 0.0
-2 0.2 0.0
-1.96653 0.266667 0.0
-1.96524 0.415385 0.0
-1.96485 0.315 0.0
-1.96348 0.363636 0.0
-1.96414 0.464286 0.0
-2 0.6 0.0
-1.96538 0.584615 0.0
-1.96538 0.538462 0.0
-1.94979 0 0.0
-1.96653 0.0666666 0.0
-1.93306 0.0333333 0.0
-2 0.8 0.0
-2 0.75 0.0
-2 0.7 0.0
-2 0.65 0.0
-1.96249 0.7375 0.0
-1.96666 0.833333 0.0
-2 1 0.0
-2 0.95 0.0
-1.96249 0.8875 0.0
-1.96666 0.933333 0.0
-1.96234 0.1125 0.0
-1.96653 0.166667 0.0
-1.93724 0.225 0.0
-1.92971 0.28 0.0
-1.93048 0.380769 0.0
-1.93048 0.423077 0.0
-1.89958 0.3375 0.0
-1.9292 0.484203 0.0
-1.92117 0.530907 0.0
-1.96363 0.636364 0.0
-1.93076 0.576923 0.0
-1.89958 0 0.0
-1.88703 0.0375 0.0
-1.90963 0.08 0.0
-1.86611 0.0666666 0.0
-1.93749 0.775 0.0
-1.93635 0.672727 0.0
-1.92999 0.72 0.0
-1.93332 0.866667 0.0
-1.92856 0.821429 0.0
-1.94999 1 0.0
-1.92499 0.9625 0.0
-1.92499 0.925 0.0
-1.89998 0.9 0.0
-1.89958 0.125 0.0
-1.92827 0.178571 0.0
-1.89958 0.233333 0.0
-1.89045 0.290909 0.0
-1.86096 0.311538 0.0
-1.89241 0.392857 0.0
-1.89334 0.448489 0.0
-1.85655 0.357143 0.0
-1.89614 0.653846 0.0
-1.89427 0.504121 0.0
-1.8952 0.559753 0.0
-1.89614 0.615385 0.0
-1.84937 0 0.0
-1.83264 0.0333333 0.0
-1.85655 0.107143 0.0
-1.81172 0.075 0.0
-1.89998 0.766667 0.0
-1.89089 0.709091 0.0
-1.87498 0.85 0.0
-1.85998 0.79 0.0
-1.88748 0.8125 0.0
-1.89998 1 0.0
-1.88748 0.9625 0.0
-1.86664 0.933333 0.0
-1.85712 0.892857 0.0
-1.87448 0.15 0.0
-1.86611 0.194444 0.0
-1.83264 0.133333 0.0
-1.83264 0.2625 0.0
-1.82068 0.321429 0.0
-1.85664 0.404762 0.0
-1.85674 0.452381 0.0
-1.85683 0.5 0.0
-1.81184 0.375 0.0
-1.85712 0.642857 0.0
-1.85693 0.547619 0.0
-1.85702 0.595238 0.0
-1.79917 0 0.0
-1.78482 0.0357143 0.0
-1.79917 0.116667 0.0
-1.76569 0.0666666 0.0
-1.85452 0.745455 0.0
-1.82689 0.692308 0.0
-1.81815 0.781818 0.0
-1.82497 0.825 0.0
-1.84997 1 0.0
-1.8333 0.958333 0.0
-1.81247 0.8875 0.0
-1.81247 0.925 0.0
-1.81742 0.218182 0.0
-1.82427 0.175 0.0
-1.77634 0.145455 0.0
-1.79144 0.242308 0.0
-1.78482 0.285714 0.0
-1.77469 0.332653 0.0
-1.81215 0.529762 0.0
-1.81194 0.422619 0.0
-1.81203 0.470238 0.0
-1.76714 0.392857 0.0
-1.81234 0.625 0.0
-1.79732 0.571429 0.0
-1.74896 0 0.0
-1.73222 0.0333333 0.0
-1.75398 0.105 0.0
-1.71883 0.07 0.0
-1.79227 0.730769 0.0
-1.78007 0.679121 0.0
-1.75765 0.769231 0.0
-1.78178 0.818182 0.0
-1.78996 0.86 0.0
-1.79996 1 0.0
-1.78568 0.964286 0.0
-1.76663 0.922222 0.0
-1.76569 0.1875 0.0
-1.73222 0.15 0.0
-1.74896 0.25 0.0
-1.73714 0.304762 0.0
-1.76743 0.537202 0.0
-1.72869 0.343878 0.0
-1.76732 0.485119 0.0
-1.76723 0.440476 0.0
-1.72243 0.410714 0.0
-1.76757 0.607143 0.0
-1.69875 0 0.0
-1.68369 0.035 0.0
-1.69875 0.1125 0.0
-1.66528 0.075 0.0
-1.74341 0.708974 0.0
-1.73324 0.665934 0.0
-1.70441 0.74478 0.0
-1.71423 0.785714 0.0
-1.72303 0.826923 0.0
-1.74541 0.854545 0.0
-1.74541 0.890909 0.0
-1.74996 1 0.0
-1.73745 0.9625 0.0
-1.71359 0.927273 0.0
-1.68716 0.153846 0.0
-1.7131 0.214286 0.0
-1.70725 0.275 0.0
-1.69712 0.321939 0.0
-1.72279 0.589286 0.0
-1.72261 0.5 0.0
-1.7227 0.544643 0.0
-1.6827 0.355102 0.0
-1.67773 0.428571 0.0
-1.70763 0.464286 0.0
-1.70369 0.62449 0.0
-1.64854 0 0.0
-1.63181 0.0375 0.0
-1.64137 0.142857 0.0
-1.61764 0.0769231 0.0
-1.69458 0.703846 0.0
-1.67471 0.657437 0.0
-1.66143 0.727637 0.0
-1.67125 0.768571 0.0
-1.67851 0.821429 0.0
-1.68841 0.861538 0.0
-1.70904 0.890909 0.0
-1.69995 1 0.0
-1.68176 0.963636 0.0
-1.67267 0.927273 0.0
-1.65427 0.187143 0.0
-1.66718 0.231429 0.0
-1.66554 0.3 0.0
-1.67802 0.571429 0.0
-1.67792 0.523809 0.0
-1.6367 0.366327 0.0
-1.63682 0.423469 0.0
-1.62568 0.502976 0.0
-1.6629 0.470238 0.0
-1.65254 0.618367 0.0
-1.6059 0.307143 0.0
-1.59833 0 0.0
-1.58288 0.0384615 0.0
-1.60563 0.169643 0.0
-1.58179 0.112271 0.0
-1.56964 0.0714286 0.0
-1.64574 0.690385 0.0
-1.62827 0.751429 0.0
-1.63371 0.791071 0.0
-1.64279 0.857143 0.0
-1.65378 0.896154 0.0
-1.64994 1 0.0
-1.6363 0.963636 0.0
-1.61916 0.930769 0.0
-1.61345 0.209107 0.0
-1.62126 0.248571 0.0
-1.56989 0.196429 0.0
-1.63324 0.553571 0.0
-1.58846 0.535714 0.0
-1.59408 0.361905 0.0
-1.59161 0.402211 0.0
-1.58832 0.464286 0.0
-1.61504 0.598581 0.0
-1.59683 0.64359 0.0
-1.57899 0.274107 0.0
-1.56176 0.322381 0.0
-1.54812 0 0.0
-1.53378 0.0357143 0.0
-1.54593 0.147619 0.0
-1.53385 0.0732143 0.0
-1.53393 0.110714 0.0
-1.58522 0.704286 0.0
-1.58709 0.745 0.0
-1.58896 0.785714 0.0
-1.60695 0.830357 0.0
-1.60707 0.892857 0.0
-1.59993 1 0.0
-1.58454 0.965385 0.0
-1.57135 0.928571 0.0
-1.55209 0.241071 0.0
-1.5291 0.198214 0.0
-1.56936 0.570918 0.0
-1.54369 0.517857 0.0
-1.5464 0.380952 0.0
-1.54564 0.427721 0.0
-1.54488 0.47449 0.0
-1.55026 0.606122 0.0
-1.54222 0.677143 0.0
-1.52943 0.282857 0.0
-1.52143 0.33619 0.0
-1.49792 0 0.0
-1.49802 0.05 0.0
-1.49822 0.15 0.0
-1.49312 0.1 0.0
-1.5423 0.717143 0.0
-1.54419 0.767857 0.0
-1.54727 0.819048 0.0
-1.57122 0.861905 0.0
-1.53553 0.914286 0.0
-1.54992 1 0.0
-1.53563 0.964286 0.0
-1.49842 0.25 0.0
-1.48831 0.2 0.0
-1.5214 0.558929 0.0
-1.49891 0.5 0.0
-1.49871 0.4 0.0
-1.47631 0.45 0.0
-1.49911 0.6 0.0
-1.49921 0.65 0.0
-1.49931 0.7 0.0
-1.48111 0.35 0.0
-1.48351 0.3 0.0
-1.44771 0 0.0
-1.44782 0.05 0.0
-1.44804 0.15 0.0
-1.44793 0.1 0.0
-1.49941 0.75 0.0
-1.49951 0.8 0.0
-1.49981 0.95 0.0
-1.49961 0.85 0.0
-1.49971 0.9 0.0
-1.49991 1 0.0
-1.44826 0.25 0.0
-1.43815 0.2 0.0
-1.47151 0.55 0.0
-1.44881 0.5 0.0
-1.44859 0.4 0.0
-1.42619 0.45 0.0
-1.44913 0.65 0.0
-1.44902 0.6 0.0
-1.44935 0.75 0.0
-1.44924 0.7 0.0
-1.43972 0.35 0.0
-1.43336 0.3 0.0
-1.3975 0 0.0
-1.39762 0.05 0.0
-1.39786 0.15 0.0
-1.39274 0.1 0.0
-1.44957 0.85 0.0
-1.44946 0.8 0.0
-1.4523 0.95 0.0
-1.44968 0.9 0.0
-1.4499 1 0.0
-1.3981 0.25 0.0
-1.38798 0.2 0.0
-1.42141 0.55 0.0
-1.3987 0.5 0.0
-1.39834 0.35 0.0
-1.37845 0.4 0.0
-1.37607 0.45 0.0
-1.40784 0.65 0.0
-1.39894 0.6 0.0
-1.41185 0.75 0.0
-1.39918 0.7 0.0
-1.38322 0.3 0.0
-1.34729 0 0.0
-1.34492 0.05 0.0
-1.34018 0.15 0.0
-1.34255 0.1 0.0
-1.40707 0.85 0.0
-1.39941 0.8 0.0
-1.39977 0.95 0.0
-1.39965 0.9 0.0
-1.39989 1 0.0
-1.33781 0.2 0.0
-1.33544 0.25 0.0
-1.37131 0.55 0.0
-1.34859 0.5 0.0
-1.33833 0.4 0.0
-1.3307 0.35 0.0
-1.32595 0.45 0.0
-1.34885 0.6 0.0
-1.36655 0.65 0.0
-1.36179 0.75 0.0
-1.34911 0.7 0.0
-1.33307 0.3 0.0
-1.29708 0 0.0
-1.29722 0.05 0.0
-1.2975 0.15 0.0
-1.29236 0.1 0.0
-1.35703 0.85 0.0
-1.34937 0.8 0.0
-1.34988 1 0.0
-1.34962 0.9 0.0
-1.35226 0.95 0.0
-1.28528 0.25 0.0
-1.28764 0.2 0.0
-1.28931 0.35 0.0
-1.32121 0.55 0.0
-1.29848 0.5 0.0
-1.28709 0.45 0.0
-1.2982 0.4 0.0
-1.29876 0.6 0.0
-1.31647 0.65 0.0
-1.29918 0.75 0.0
-1.29904 0.7 0.0
-1.28292 0.3 0.0
-1.24687 0 0.0
-1.24702 0.05 0.0
-1.24717 0.1 0.0
-1.24732 0.15 0.0
-1.29946 0.85 0.0
-1.29932 0.8 0.0
-1.29987 1 0.0
-1.29974 0.95 0.0
-1.30462 0.9 0.0
-1.24762 0.25 0.0
-1.23747 0.2 0.0
-1.24792 0.35 0.0
-1.22807 0.4 0.0
-1.27111 0.55 0.0
-1.24837 0.5 0.0
-1.24822 0.45 0.0
-1.24867 0.6 0.0
-1.26639 0.65 0.0
-1.26167 0.75 0.0
-1.24897 0.7 0.0
-1.23277 0.3 0.0
-1.19667 0 0.0
-1.19683 0.05 0.0
-1.18964 0.15 0.0
-1.19198 0.1 0.0
-1.25695 0.85 0.0
-1.24927 0.8 0.0
-1.25223 0.95 0.0
-1.24987 1 0.0
-1.24957 0.9 0.0
-1.1873 0.2 0.0
-1.18496 0.25 0.0
-1.18028 0.35 0.0
-1.17794 0.4 0.0
-1.1981 0.45 0.0
-1.19842 0.55 0.0
-1.19826 0.5 0.0
-1.19858 0.6 0.0
-1.19874 0.65 0.0
-1.19906 0.75 0.0
-1.1989 0.7 0.0
-1.18262 0.3 0.0
-1.14646 0 0.0
-1.14663 0.05 0.0
-1.1418 0.1 0.0
-1.13713 0.2 0.0
-1.14697 0.15 0.0
-1.20691 0.85 0.0
-1.20926 0.8 0.0
-1.20221 0.95 0.0
-1.19986 1 0.0
-1.20456 0.9 0.0
-1.13997 0.3 0.0
-1.14731 0.25 0.0
-1.13781 0.4 0.0
-1.13014 0.35 0.0
-1.12548 0.45 0.0
-1.14815 0.5 0.0
-1.15962 0.55 0.0
-1.14849 0.6 0.0
-1.15745 0.65 0.0
-1.16155 0.75 0.0
-1.14917 0.8 0.0
-1.14883 0.7 0.0
-1.09625 0 0.0
-1.09661 0.1 0.0
-1.09393 0.05 0.0
-1.09697 0.2 0.0
-1.08929 0.15 0.0
-1.15687 0.85 0.0
-1.14985 1 0.0
-1.15219 0.95 0.0
-1.14951 0.9 0.0
-1.09733 0.3 0.0
-1.08465 0.25 0.0
-1.09769 0.4 0.0
-1.08 0.35 0.0
-1.08661 0.45 0.0
-1.09804 0.5 0.0
-1.12082 0.55 0.0
-1.10916 0.8 0.0
-1.10629 0.7 0.0
-1.0984 0.6 0.0
-1.11616 0.65 0.0
-1.11149 0.75 0.0
-1.04604 0 0.0
-1.04623 0.05 0.0
-1.04642 0.1 0.0
-1.0468 0.2 0.0
-1.03911 0.15 0.0
-1.09948 0.9 0.0
-1.0993 0.85 0.0
-1.09984 1 0.0
-1.09966 0.95 0.0
-1.04718 0.3 0.0
-1.03449 0.25 0.0
-1.04756 0.4 0.0
-1.02986 0.35 0.0
-1.04775 0.45 0.0
-1.04794 0.5 0.0
-1.04813 0.55 0.0
-1.05911 0.8 0.0
-1.04831 0.6 0.0
-1.06376 0.7 0.0
-1.0485 0.65 0.0
-1.04888 0.75 0.0
-0.995833 0 0.0
-0.991231 0.1 0.0
-0.996033 0.05 0.0
-0.986629 0.2 0.0
-0.98893 0.15 0.0
-1.05447 0.9 0.0
-1.04926 0.85 0.0
-1.04983 1 0.0
-1.04964 0.95 0.0
-0.984328 0.25 0.0
-0.99703 0.3 0.0
-0.997429 0.4 0.0
-0.997628 0.45 0.0
-0.979726 0.35 0.0
-0.997827 0.5 0.0
-0.998027 0.55 0.0
-0.998226 0.6 0.0
-0.961416 0.475 0.0
-1.00907 0.8 0.0
-0.998426 0.65 0.0
-0.998625 0.7 0.0
-1.01138 0.75 0.0
-0.945625 0 0.0
-0.946044 0.1 0.0
-0.943334 0.05 0.0
-0.946463 0.2 0.0
-0.938752 0.15 0.0
-1.00444 0.9 0.0
-1.00675 0.85 0.0
-0.999821 1 0.0
-1.00213 0.95 0.0
-0.93417 0.25 0.0
-0.946881 0.3 0.0
-0.9473 0.4 0.0
-0.929588 0.35 0.0
-0.925005 0.45 0.0
-0.960371 0.525 0.0
-0.959325 0.575 0.0
-0.958279 0.625 0.0
-0.922714 0.5 0.0
-0.959017 0.8 0.0
-0.957233 0.675 0.0
-0.952999 0.7125 0.0
-0.948766 0.75 0.0
-0.895417 0 0.0
-0.895855 0.1 0.0
-0.893136 0.05 0.0
-0.896294 0.2 0.0
-0.888573 0.15 0.0
-0.949184 0.85 0.0
-0.954415 0.9 0.0
-0.949812 1 0.0
-0.949603 0.95 0.0
-0.884011 0.25 0.0
-0.896733 0.3 0.0
-0.874887 0.45 0.0
-0.879449 0.35 0.0
-0.897171 0.4 0.0
-0.920423 0.55 0.0
-0.918132 0.6 0.0
-0.915841 0.65 0.0
-0.872606 0.5 0.0
-0.908968 0.8 0.0
-0.91355 0.7 0.0
-0.898707 0.75 0.0
-0.845208 0 0.0
-0.845438 0.05 0.0
-0.845667 0.1 0.0
-0.845896 0.15 0.0
-0.833853 0.25 0.0
-0.846126 0.2 0.0
-0.899146 0.85 0.0
-0.904386 0.9 0.0
-0.899584 0.95 0.0
-0.899804 1 0.0
-0.838062 0.35 0.0
[...]
POINT_DATA 10839
VECTORS Velocity float
0.21 0 0.0
0.24 0 0.0
0.2275 0 0.0
0.2475 0 0.0
0.25 0 0.0
0.2475 0 0.0
0 0 0.0
0.0475 0 0.0
0.1275 0 0.0
0.09 0 0.0
0.09 0 0.0
0.1275 0 0.0
0.1875 0 0.0
0.16 0 0.0
0.195557 -2.07419e-05 0.0
0.24284 -2.70532e-05 0.0
0.215776 -2.44994e-05 0.0
0.231406 -2.72303e-05 0.0
0.248724 -2.79726e-05 0.0
0.24 0 0.0
0.24284 -2.46261e-05 0.0
0.24852 -2.60491e-05 0.0
0 0 0.0
0.0622237 -3.59001e-06 0.0
0.0322263 -2.37381e-06 0.0
0.16 0 0.0
0.1875 0 0.0
0.21 0 0.0
0.2275 0 0.0
0.193592 -1.97274e-05 0.0
0.138888 -1.13416e-05 0.0
0 0 0.0
0.0475 0 0.0
0.0998421 -8.14544e-06 0.0
0.0622209 -3.48434e-06 0.0
0.0998459 -9.37036e-06 0.0
0.13889 -1.30642e-05 0.0
0.174379 -3.28397e-05 0.0
0.201605 -4.48658e-05 0.0
0.235786 -5.31353e-05 0.0
0.244083 -5.44172e-05 0.0
0.2236 -7.27084e-05 0.0
0.249749 -5.47029e-05 0.0
0.249043 -5.91296e-05 0.0
0.231404 -2.41997e-05 0.0
0.24408 -4.88427e-05 0.0
0 0 0.0
0.0361061 -4.68577e-06 0.0
0.0736109 -1.29305e-05 0.0
0.0622454 -1.43697e-05 0.0
0.174372 -2.71396e-05 0.0
0.220163 -3.74327e-05 0.0
0.201596 -3.72088e-05 0.0
0.11555 -1.69393e-05 0.0
0.146678 -2.54887e-05 0.0
0 0 0.0
0.0360886 -2.92154e-06 0.0
0.0693682 -9.17314e-06 0.0
0.0899879 -1.74949e-05 0.0
0.109389 -2.71825e-05 0.0
0.14669 -2.94818e-05 0.0
0.1789 -5.54039e-05 0.0
0.206291 -7.22585e-05 0.0
0.214496 -9.76814e-05 0.0
0.238523 -8.31225e-05 0.0
0.247346 -8.35609e-05 0.0
0.229601 -0.000108577 0.0
0.226325 -6.30756e-05 0.0
0.24998 -8.04496e-05 0.0
0.246425 -7.52458e-05 0.0
0.23668 -6.86533e-05 0.0
0 0 0.0
0.0322469 -5.45017e-06 0.0
0.095692 -3.09986e-05 0.0
0.0694217 -2.34114e-05 0.0
0.17888 -4.42373e-05 0.0
0.206272 -5.83806e-05 0.0
0.127484 -3.47266e-05 0.0
0.165882 -5.48144e-05 0.0
0.152331 -4.04583e-05 0.0
0 0 0.0
0.0360825 -4.00461e-06 0.0
0.0622023 -1.20909e-05 0.0
0.0956393 -2.64951e-05 0.0
0.127521 -4.22314e-05 0.0
0.156658 -6.1858e-05 0.0
0.115595 -4.84581e-05 0.0
0.193622 -0.000103494 0.0
0.218134 -0.000130526 0.0
0.240933 -0.000112468 0.0
0.247731 -0.000112561 0.0
0.249994 -0.000109134 0.0
0.234387 -0.000147606 0.0
0.229579 -8.62685e-05 0.0
0.247723 -0.000103227 0.0
0.240918 -9.57335e-05 0.0
0 0 0.0
0.034481 -7.3727e-06 0.0
0.103112 -4.71495e-05 0.0
0.0622909 -2.23999e-05 0.0
0.189735 -6.72664e-05 0.0
0.212996 -9.16018e-05 0.0
0.17055 -7.15657e-05 0.0
0.144345 -5.47584e-05 0.0
0 0 0.0
0.0399059 -6.51431e-06 0.0
0.0998032 -3.57533e-05 0.0
0.0693357 -1.91603e-05 0.0
0.170619 -9.54533e-05 0.0
0.144416 -7.12716e-05 0.0
0.124368 -7.08445e-05 0.0
0.183644 -0.000122603 0.0
0.204124 -0.000147901 0.0
0.222025 -0.000172912 0.0
0.249099 -0.00013762 0.0
0.244014 -0.000149963 0.0
0.249107 -0.000146826 0.0
0.238531 -0.00018917 0.0
0.234353 -0.000114441 0.0
0.244875 -0.00013707 0.0
0 0 0.0
0.0322812 -6.5825e-06 0.0
0.0940603 -4.6734e-05 0.0
0.0651969 -2.33263e-05 0.0
0.196713 -9.42861e-05 0.0
0.217882 -0.000114609 0.0
0.177469 -9.33889e-05 0.0
0.148716 -7.03917e-05 0.0
0.120352 -5.15757e-05 0.0
0 0 0.0
0.0344028 -6.2876e-06 0.0
0.0716672 -2.63685e-05 0.0
0.152418 -0.000104745 0.0
0.127605 -8.59118e-05 0.0
0.187572 -0.000156224 0.0
0.211938 -0.000197329 0.0
0.248588 -0.000165393 0.0
0.225664 -0.000221076 0.0
0.249761 -0.000180095 0.0
0.246452 -0.000187867 0.0
0.242031 -0.000233154 0.0
0.238486 -0.00014241 0.0
0 0 0.0
0.0338518 -4.80463e-06 0.0
0.0999748 -5.36753e-05 0.0
0.0695078 -1.81675e-05 0.0
0.206284 -0.000115368 0.0
0.222416 -0.000134218 0.0
0.190023 -0.000112621 0.0
0.168306 -9.91392e-05 0.0
0.143053 -8.43441e-05 0.0
0.124232 -6.61289e-05 0.0
0.0971169 -4.7762e-05 0.0
0 0 0.0
0.0360383 -9.18939e-06 0.0
0.0673461 -3.41154e-05 0.0
0.130329 -9.97374e-05 0.0
0.16848 -0.000153463 0.0
0.199464 -0.000209693 0.0
0.218357 -0.000247498 0.0
0.241977 -0.000171255 0.0
0.249965 -0.000210402 0.0
0.247961 -0.000191049 0.0
0.229047 -0.0002764 0.0
0.244881 -0.000278024 0.0
0.248698 -0.000236269 0.0
0.23444 -0.000159298 0.0
0 0 0.0
0.0361817 9.38227e-07 0.0
0.122661 -8.87287e-05 0.0
0.0711688 -4.63653e-06 0.0
0.208384 -0.000126192 0.0
0.225138 -0.000147542 0.0
0.19811 -0.000118895 0.0
0.177801 -0.000109919 0.0
0.146604 -9.95808e-05 0.0
0.119196 -8.34746e-05 0.0
0.097096 -5.96544e-05 0.0
0 0 0.0
0.0349559 -1.4368e-05 0.0
0.0673133 -4.76067e-05 0.0
0.152313 -0.000155263 0.0
0.178022 -0.000209033 0.0
0.210099 -0.000274317 0.0
0.244823 -0.000198866 0.0
0.249367 -0.000231242 0.0
0.232169 -0.000339727 0.0
0.244115 -0.00033058 0.0
0.249893 -0.000284214 0.0
0.249064 -0.000275989 0.0
0.235895 -0.000171989 0.0
0.21294 -0.000371707 0.0
0 0 0.0
0.0370648 9.12767e-06 0.0
0.14115 -0.000147088 0.0
0.0999435 -3.19847e-05 0.0
0.0664968 1.46951e-05 0.0
0.21367 -0.000129942 0.0
0.186709 -0.000109766 0.0
0.165203 -0.000109806 0.0
0.122343 -0.000106768 0.0
0.0929305 -8.30475e-05 0.0
0 0 0.0
0.034916 -2.18495e-05 0.0
0.0642552 -6.89599e-05 0.0
0.165633 -0.000223911 0.0
0.186983 -0.000282716 0.0
0.158206 -0.000242479 0.0
0.247022 -0.000230419 0.0
0.248569 -0.000272649 0.0
0.230975 -0.000415416 0.0
0.240415 -0.000408555 0.0
0.24862 -0.000359309 0.0
0.240154 -0.000190259 0.0
0.229251 -0.000143234 0.0
0.199195 -0.000388901 0.0
0.218585 -0.000474331 0.0
0 0 0.0
0.0344933 1.52137e-05 0.0
0.126257 -0.00012232 0.0
0.0680456 2.13716e-05 0.0
0.0988192 -2.97908e-05 0.0
0.208166 -9.76745e-05 0.0
0.189898 -9.11158e-05 0.0
0.168303 -0.000103023 0.0
0.140779 -0.000118849 0.0
0.0955029 -0.000114752 0.0
0 0 0.0
0.0332305 -3.01591e-05 0.0
0.0660751 -9.75102e-05 0.0
0.183293 -0.000382601 0.0
0.159407 -0.000311136 0.0
0.244784 -0.000224158 0.0
0.24946 -0.00032434 0.0
0.235822 -0.00051122 0.0
0.24467 -0.000468795 0.0
0.249168 -0.000402521 0.0
0.238533 -0.000162475 0.0
0.218468 -7.01839e-05 0.0
0.203121 -0.000521785 0.0
0.223276 -0.00058895 0.0
0 0 0.0
0.0475863 2.33073e-05 0.0
0.128099 -0.000186378 0.0
0.0903967 -2.89233e-05 0.0
0.202747 -4.84838e-05 0.0
0.178203 -6.1807e-05 0.0
0.148167 -0.000108235 0.0
0.118912 -0.000137774 0.0
0.078093 -0.00013212 0.0
0 0 0.0
0.0341629 -4.23581e-05 0.0
0.187944 -0.00055093 0.0
0.160627 -0.000418698 0.0
0.246249 -0.00024283 0.0
0.249694 -0.00039496 0.0
0.239896 -0.000614716 0.0
0.247219 -0.000563918 0.0
0.23969 -0.000134783 0.0
0.227256 -3.83652e-05 0.0
0.209854 2.18993e-05 0.0
0.227555 -0.000722679 0.0
0.210268 -0.000700075 0.0
0 0 0.0
0.047591 5.87577e-06 0.0
0.128326 -0.000316533 0.0
0.0905218 -9.11221e-05 0.0
0.187454 2.1358e-05 0.0
0.16002 -3.20083e-05 0.0
0.047111 -7.50475e-05 0.0
0.12747 -0.000110249 0.0
0.0897588 -0.000142388 0.0
0 0 0.0
0.188085 -0.000756944 0.0
0.16085 -0.000614536 0.0
0.247086 -0.00026081 0.0
0.249531 -0.00044596 0.0
0.239802 -0.000768393 0.0
0.247047 -0.000681811 0.0
0.22716 7.09499e-05 0.0
0.23955 -7.08936e-05 0.0
0.187488 0.000165236 0.0
0.209812 0.000158097 0.0
0.227526 -0.000892169 0.0
0.210315 -0.000936696 0.0
0 0 0.0
0.0476573 -4.12366e-05 0.0
0.128613 -0.000551608 0.0
0.0907763 -0.000255051 0.0
0.127561 -1.46434e-05 0.0
0.160107 9.4966e-05 0.0
0.0470209 -6.44975e-05 0.0
0.0897616 -9.38178e-05 0.0
0 0 0.0
0.188237 -0.00105466 0.0
0.161107 -0.000918822 0.0
0.246891 -0.000240781 0.0
0.249305 -0.000496306 0.0
0.227462 -0.00110427 0.0
0.239581 -0.0010597 0.0
0.246815 -0.00082124 0.0
0.227044 0.000197579 0.0
0.23935 2.85225e-05 0.0
0.187511 0.000326727 0.0
0.209748 0.000368967 0.0
0.210342 -0.00125048 0.0
0 0 0.0
0.0478495 -0.000116014 0.0
0.129044 -0.000987079 0.0
0.091155 -0.00050349 0.0
0.127668 0.000147236 0.0
0.160216 0.000322226 0.0
0.0469751 -2.76472e-05 0.0
0.08983 2.63047e-05 0.0
0 0 0.0
0.161389 -0.00135899 0.0
0.188419 -0.0015813 0.0
0.246616 -0.00020634 0.0
0.248984 -0.000553653 0.0
0.239375 -0.00127183 0.0
0.227285 -0.00155001 0.0
0.24648 -0.000988449 0.0
0.239069 0.00016811 0.0
0.226884 0.000369511 0.0
0.187526 0.000635507 0.0
0.209636 0.000660896 0.0
0.210331 -0.00166745 0.0
0 0 0.0
0.0481805 -0.000213162 0.0
0.129437 -0.00142746 0.0
0.0917375 -0.0008449 0.0
0.127851 0.000451043 0.0
0.160333 0.000675342 0.0
0 0 0.0
0.0900301 0.00024238 0.0
0.0470169 3.23619e-05 0.0
0.188521 -0.00216598 0.0
0.161676 -0.00194939 0.0
0.227091 -0.00190252 0.0
0.246242 -0.000151424 0.0
0.248555 -0.000615869 0.0
0.24614 -0.00113895 0.0
0.23911 -0.00151757 0.0
0.238682 0.000351446 0.0
0.226619 0.000639027 0.0
0.187497 0.00119091 0.0
0.209453 0.00104672 0.0
0.210255 -0.00217726 0.0
0 0 0.0
0.0487609 -0.000351652 0.0
0.0924788 -0.00121893 0.0
0.130017 -0.00206452 0.0
0.128164 0.000974306 0.0
0.160446 0.00117343 0.0
0 0 0.0
0.0472262 0.000129077 0.0
0.0903553 0.000518946 0.0
0.188561 -0.00268218 0.0
0.161974 -0.00268981 0.0
0.226823 -0.00231352 0.0
0.238462 -0.00203453 0.0
0.245741 -7.84248e-05 0.0
0.247984 -0.000680268 0.0
0.245722 -0.00131238 0.0
0.238166 0.000579537 0.0
0.226243 0.000980948 0.0
0.187407 0.00162143 0.0
0.209173 0.00153232 0.0
0.210085 -0.00280029 0.0
0 0 0.0
0.0496056 -0.000492653 0.0
0.13094 -0.00294186 0.0
0.0937693 -0.00175968 0.0
0.128471 0.00146779 0.0
0.160548 0.0018157 0.0
0.0476276 0.000244832 0.0
0 0 0.0
0.091015 0.000940702 0.0
0.162277 -0.0035612 0.0
0.188544 -0.00371426 0.0
0.226206 -0.00309621 0.0
0.237799 -0.00247308 0.0
0.245029 -0.0015701 0.0
0.24475 6.18166e-05 0.0
0.24725 -0.000761893 0.0
0.237495 0.000852631 0.0
0.225529 0.00155684 0.0
0.187186 0.00249924 0.0
0.208764 0.00211749 0.0
0.209804 -0.00353669 0.0
0 0 0.0
0.0507456 -0.000660722 0.0
0.0952625 -0.00227138 0.0
0.162622 -0.00453331 0.0
0.131742 -0.00364936 0.0
0.12898 0.00215521 0.0
0.160608 0.00241774 0.0
0.0482793 0.000386602 0.0
0 0 0.0
0.0917913 0.00132651 0.0
0.209452 -0.00424268 0.0
0.188443 -0.00441563 0.0
0.23715 -0.00287541 0.0
0.225537 -0.00378093 0.0
0.243719 -0.00198653 0.0
0.246328 -0.000848386 0.0
0.244037 0.000150627 0.0
0.236642 0.0011655 0.0
0.224922 0.0019682 0.0
0.18694 0.00309948 0.0
0.160739 0.00346646 0.0
0.208209 0.00279307 0.0
0 0 0.0
0.0970031 -0.00274563 0.0
0.0522172 -0.000835645 0.0
0.162946 -0.00538698 0.0
0.133204 -0.00463171 0.0
0.129676 0.00291805 0.0
0 0 0.0
0.0491931 0.000527271 0.0
0.0931415 0.00184444 0.0
0.208996 -0.00500892 0.0
0.188221 -0.00570687 0.0
0.236367 -0.00329427 0.0
0.224705 -0.00453885 0.0
0.242799 -0.00224698 0.0
0.245182 -0.000947267 0.0
0.243225 0.000245443 0.0
0.160812 0.00420114 0.0
0.207591 0.00343518 0.0
0.235572 0.00151315 0.0
0.224199 0.00241649 0.0
0.186555 0.00398002 0.0
0 0 0.0
0.0538151 -0.000968533 0.0
0.0992023 -0.00324116 0.0
0.163425 -0.00644574 0.0
0.134745 -0.00546066 0.0
0.0947292 0.00232314 0.0
0.130718 0.00380425 0.0
0 0 0.0
0.0504554 0.000685161 0.0
0.208304 -0.00599578 0.0
0.187941 -0.00680786 0.0
0.2352 -0.00388239 0.0
0.223662 -0.00535516 0.0
0.241779 -0.00252255 0.0
0.24382 -0.0010592 0.0
0.241329 0.000447201 0.0
0.161019 0.00517236 0.0
0.234289 0.00189059 0.0
0.206859 0.00412287 0.0
0.222722 0.00322959 0.0
0.185925 0.00515414 0.0
0 0 0.0
0.102087 -0.00369682 0.0
0.0558755 -0.00109104 0.0
0.164234 -0.00770582 0.0
0.136654 -0.00622142 0.0
0.0964546 0.0027278 0.0
0.131941 0.00453747 0.0
0 0 0.0
0.0518228 0.000822813 0.0
0.187659 -0.00794099 0.0
0.207472 -0.00703886 0.0
0.233793 -0.00451858 0.0
0.240223 -0.00291186 0.0
0.222417 -0.00623479 0.0
0.242185 -0.00118542 0.0
0.239691 0.000579904 0.0
0.232747 0.00228659 0.0
0.240434 -0.00225914 0.0
0.161304 0.00608872 0.0
0.221328 0.00387672 0.0
0.205474 0.00522821 0.0
0.185483 0.00586492 0.0
0 0 0.0
0.104746 -0.00398937 0.0
0.0580865 -0.00121212 0.0
0.164915 -0.00847793 0.0
0.138894 -0.00687964 0.0
0.0986501 0.00307681 0.0
0.133199 0.00511221 0.0
0 0 0.0
0.0534345 0.000905188 0.0
0.187399 -0.00905454 0.0
0.206496 -0.00811947 0.0
0.232143 -0.00519314 0.0
0.220962 -0.00716019 0.0
0.237494 -0.00353158 0.0
0.240095 -0.000302787 0.0
0.235362 0.00166211 0.0
0.226248 0.00353898 0.0
0.239233 -0.00140326 0.0
0.161789 0.00692917 0.0
0.21277 0.00522257 0.0
0.199802 0.00631581 0.0
0.184759 0.00703831 0.0
0 0 0.0
0.107921 -0.00421638 0.0
0.0604046 -0.00127633 0.0
0.166045 -0.00932883 0.0
0.141479 -0.00737663 0.0
0.135275 0.00573636 0.0
0.101141 0.00332685 0.0
0 0 0.0
0.0554093 0.000969501 0.0
0.187235 -0.0100973 0.0
0.205432 -0.00919979 0.0
0.235276 -0.00398408 0.0
0.219312 -0.00810724 0.0
0.230244 -0.00591251 0.0
0.236638 0.000785273 0.0
0.229738 0.00295141 0.0
0.218565 0.00496828 0.0
0.236892 -0.0015753 0.0
0.162478 0.00759704 0.0
0.203279 0.00665353 0.0
0.184217 0.00786663 0.0
0 0 0.0
0.0626172 -0.00130185 0.0
0.111277 -0.00431497 0.0
0.143967 -0.00763247 0.0
0.187244 -0.0109919 0.0
0.167462 -0.00999577 0.0
0.137391 0.00608964 0.0
0.103813 0.0034597 0.0
0.057237 0.00102647 0.0
0 0 0.0
0.217813 -0.00888997 0.0
0.204338 -0.0102252 0.0
0.233355 -0.00436066 0.0
0.2281 -0.00665119 0.0
0.2166 0.00560041 0.0
0.234296 0.000911277 0.0
0.227502 0.00335457 0.0
0.234265 -0.00177061 0.0
0.183819 0.00851613 0.0
0.163683 0.00812259 0.0
0.201427 0.00761542 0.0
0 0 0.0
0.0650436 -0.00125515 0.0
0.115064 -0.00427292 0.0
0.147097 -0.00774337 0.0
0.18741 -0.0115491 0.0
0.16966 -0.0104809 0.0
0.139769 0.00620719 0.0
0.10689 0.0034381 0.0
0.0591598 0.00100675 0.0
0 0 0.0
0.142422 0.00605328 0.0
0.216248 -0.0096244 0.0
0.202947 -0.0113813 0.0
0.224707 -0.00767439 0.0
0.231274 -0.00474278 0.0
0.21369 0.00632886 0.0
0.22501 0.00372065 0.0
0.231669 0.00100119 0.0
0.231341 -0.00199213 0.0
0.183631 0.00893235 0.0
0.165049 0.00822568 0.0
0.200004 0.00815167 0.0
0 0 0.0
0.0673532 -0.00118952 0.0
0.118531 -0.00411479 0.0
0.15044 -0.00763986 0.0
0.187879 -0.0120235 0.0
0.171849 -0.0105741 0.0
0.060885 0.000927015 0.0
0.109682 0.00324705 0.0
0 0 0.0
0.144691 0.00573112 0.0
0.214304 -0.0104074 0.0
0.202048 -0.0120315 0.0
0.222093 -0.00832745 0.0
0.228366 -0.00523575 0.0
0.211833 0.00661347 0.0
0.222308 0.0039967 0.0
0.228165 -0.00225473 0.0
0.227358 0.00104507 0.0
0.183648 0.00901127 0.0
0.16668 0.00798429 0.0
0.198682 0.00843055 0.0
0 0 0.0
0.0695784 -0.00111564 0.0
0.121834 -0.00387563 0.0
0.154377 -0.00727404 0.0
0.1889 -0.0121758 0.0
0.201332 -0.0123955 0.0
0.17432 -0.0103805 0.0
0.0625286 0.000807455 0.0
0.112335 0.00292323 0.0
0 0 0.0
0.147392 0.00511161 0.0
0.211706 -0.0111557 0.0
0.219907 -0.00878153 0.0
0.225266 -0.00569909 0.0
0.225638 -0.00247741 0.0
0.209975 0.00672348 0.0
0.219443 0.00411119 0.0
0.224134 0.00095127 0.0
0.168589 0.0073763 0.0
0.183937 0.00876913 0.0
0.197547 0.00835408 0.0
0 0 0.0
0.0716368 -0.00106847 0.0
0.124987 -0.00356374 0.0
0.157835 -0.00680417 0.0
0.189783 -0.0120287 0.0
0.200899 -0.0124413 0.0
0.176995 -0.00993278 0.0
0.0639598 0.000656603 0.0
0.114771 0.00248027 0.0
0 0 0.0
0.170138 0.00666254 0.0
0.11682 0.00196611 0.0
0.150302 0.00415695 0.0
0.209948 -0.0114291 0.0
0.217738 -0.00910509 0.0
0.220543 -0.00627772 0.0
0.223056 -0.00272515 0.0
0.22153 0.000789192 0.0
0.207791 0.00656874 0.0
0.215316 0.00389772 0.0
0.184663 0.00788686 0.0
0.196771 0.00795385 0.0
0.20864 -0.0114166 0.0
0 0 0.0
0.0734763 -0.000972834 0.0
0.161151 -0.00624716 0.0
0.12787 -0.00325575 0.0
0.200745 -0.0121777 0.0
0.19149 -0.0114145 0.0
0.179748 -0.00930417 0.0
0.0652113 0.000493185 0.0
0 0 0.0
0.185328 0.00703546 0.0
0.172153 0.00550093 0.0
0.152591 0.00315847 0.0
0.0659313 0.000371134 0.0
0.118487 0.00137699 0.0
0.215126 -0.00937516 0.0
0.218063 -0.00653007 0.0
0.219578 -0.00310732 0.0
0.21702 -0.00344105 0.0
0.218927 0.000511988 0.0
0.205771 0.00602074 0.0
0.21247 0.00338427 0.0
0.19618 0.00724322 0.0
0.207513 -0.011251 0.0
0.075035 -0.000912802 0.0
0 0 0.0
0.163769 -0.00577884 0.0
0.13048 -0.002979 0.0
0.20084 -0.0116773 0.0
0.19271 -0.0109157 0.0
0.182482 -0.00859719 0.0
0 0 0.0
0.186234 0.00564259 0.0
0.174345 0.00386076 0.0
0.154149 0.0022774 0.0
0.0664893 0.000198396 0.0
0.119654 0.000813049 0.0
0.211727 -0.00944551 0.0
0.215653 -0.00673629 0.0
0.214592 -0.00381953 0.0
0.214168 -0.000307729 0.0
0.203981 0.00507713 0.0
0.20978 0.00254447 0.0
0.195607 0.00559624 0.0
0.206423 -0.0109103 0.0
0 0 0.0
0.0766374 -0.000846316 0.0
0.166612 -0.00531146 0.0
0.132628 -0.00279679 0.0
0.185066 -0.00792384 0.0
0.201177 -0.0110645 0.0
0.194739 -0.00998425 0.0
0 0 0.0
0 0 0.0
0.187208 0.00401983 0.0
0.175976 0.00238451 0.0
0.155627 0.00123095 0.0
0.12036 0.000276314 0.0
0.0667326 2.82715e-05 0.0
0.209686 -0.00936782 0.0
0.212776 -0.00698124 0.0
0.207837 0.00168684 0.0
0.211592 -0.00438635 0.0
0.211202 -0.00113559 0.0
0.202471 0.00377435 0.0
0.195407 0.0039929 0.0
0.208249 -0.00929199 0.0
0.205584 -0.0105104 0.0
0.078179 -0.00082817 0.0
0.134817 -0.00267661 0.0
0.169239 -0.00500061 0.0
0.187066 -0.0074955 0.0
0.201653 -0.0104732 0.0
0.196011 -0.00951969 0.0
0 0 0.0
0 0 0.0
0.176918 0.00125208 0.0
0.18822 0.00188454 0.0
0.120578 -0.000153808 0.0
0.156666 0.000128258 0.0
0.0666842 -0.000107593 0.0
0.209191 -0.00735646 0.0
0.208964 -0.00506131 0.0
0.1953 0.00221849 0.0
0.206077 0.000671641 0.0
0.209101 -0.00189388 0.0
0.200792 0.00164657 0.0
0.207063 -0.00925751 0.0
0.204874 -0.0101107 0.0
0.20222 -0.0100559 0.0
0.0796979 -0.000885594 0.0
0.136944 -0.00270093 0.0
0.171918 -0.00493139 0.0
0.189287 -0.00715027 0.0
0.19797 -0.00897434 0.0
0 0 0.0
0 0 0.0
0.177904 -0.000331593 0.0
0.188874 0.000220373 0.0
0.120469 -0.000617674 0.0
0.157042 -0.000712052 0.0
0.066417 -0.00022389 0.0
0.20723 -0.00272839 0.0
0.206731 -0.00582305 0.0
0.207201 -0.00773031 0.0
0.195234 0.000437781 0.0
0.204203 -0.000749951 0.0
0.199846 -7.17754e-05 0.0
0.18923 -0.00129474 0.0
0.205428 -0.00945044 0.0
0 0 0.0
0.204533 -0.0101055 0.0
0.199456 -0.00889073 0.0
0.202811 -0.0099134 0.0
0.081211 -0.000967979 0.0
0.173849 -0.005089 0.0
0.139268 -0.00294686 0.0
0.191731 -0.007221 0.0
0 0 0.0
0 0 0.0
0 0 0.0
0 0 0.0
0 0 0.0
0.0659776 -0.000313311 0.0
0.15699 -0.00143728 0.0
0.178277 -0.00148601 0.0
0.120084 -0.000934784 0.0
0.205143 -0.00387564 0.0
0.204891 -0.00668602 0.0
0.205565 -0.00824998 0.0
0.199138 -0.00146158 0.0
0.195096 -0.00126802 0.0
0.20202 -0.00283052 0.0
0.194913 -0.00259685 0.0
0.189274 -0.00229983 0.0
0.204549 -0.00990162 0.0
0.204335 -0.0103693 0.0
0 0 0.0
-0.000161901 0.000120238 0.0
0 0 0.0
-0.000792152 0.00806203 0.0
0.2034 -0.0101559 0.0
0.20046 -0.00908866 0.0
0.0830643 -0.00112782 0.0
0.175999 -0.00553048 0.0
0.141517 -0.00337466 0.0
0.193621 -0.00770304 0.0
0 0 0.0
0 0 0.0
0 0 0.0
-0.000700633 0.00567485 0.0
-0.000399667 0.000957562 0.0
-0.000938006 0.000941269 0.0
0 0 0.0
0.065322 -0.000396826 0.0
0.156628 -0.00194289 0.0
0.178211 -0.00245895 0.0
0.119239 -0.00124568 0.0
0.20342 -0.00509383 0.0
0.203359 -0.00764997 0.0
0.204234 -0.00892688 0.0
0.198505 -0.00278951 0.0
0.201021 -0.00401982 0.0
0.194598 -0.0037827 0.0
0.188975 -0.00374627 0.0
0.203836 -0.0106128 0.0
0.204164 -0.0109011 0.0
0.204149 -0.0108713 0.0
0 0 0.0
-0.000953956 0.000398976 0.0
0 0 0.0
0 0 0.0
-0.00260136 0.0149817 0.0
-0.00296833 0.0116135 0.0
0.203519 -0.0105437 0.0
0.201653 -0.00975079 0.0
0.143736 -0.00394447 0.0
0.0850585 -0.00137929 0.0
0.178194 -0.00631974 0.0
0.195326 -0.00859262 0.0
0 0 0.0
-0.00184343 0.00448881 0.0
-0.0025022 0.00780373 0.0
-0.00196019 0.00280208 0.0
-0.00285389 0.00193694 0.0
0 0 0.0
0.0645559 -0.000464924 0.0
0.155897 -0.00244359 0.0
0.177768 -0.00326275 0.0
0.118242 -0.00147849 0.0
0.201961 -0.00632291 0.0
0.202082 -0.00870567 0.0
0.203125 -0.00979942 0.0
0.197516 -0.0047955 0.0
0.200095 -0.00515573 0.0
0.19408 -0.00502569 0.0
0.177074 -0.00395338 0.0
0.188472 -0.00471582 0.0
0.203315 -0.0113836 0.0
0.204064 -0.011653 0.0
0.204206 -0.011567 0.0
0 0 0.0
-0.00286465 0.000747637 0.0
0 0 0.0
0 0 0.0
0 0 0.0
0 0 0.0
-0.00595385 0.0117906 0.0
-0.000617739 0.0118189 0.0
-0.00242542 0.017648 0.0
-0.00582385 0.0214846 0.0
-0.00555738 0.0166926 0.0
0 0 0.0
4.10084e-05 0.0142328 0.0
0.202939 -0.0112471 0.0
0.196684 -0.00964379 0.0
0 0 0.0
0.0877684 -0.00178606 0.0
0.146606 -0.00480269 0.0
0.180899 -0.00782395 0.0
0 0 0.0
0 0 0.0
-0.00472915 0.00741563 0.0
-0.00493484 0.00471486 0.0
-0.00588326 0.00279546 0.0
0 0 0.0
0.0636188 -0.000524263 0.0
0.154723 -0.00291671 0.0
0.117028 -0.00166867 0.0
0.176246 -0.00440521 0.0
0.200716 -0.00756253 0.0
0.201216 -0.00956043 0.0
0.202145 -0.0108813 0.0
0.196871 -0.00588646 0.0
0.199044 -0.00650953 0.0
0.193383 -0.00610579 0.0
0.18786 -0.0053349 0.0
0.204254 -0.0124695 0.0
0.202788 -0.0123424 0.0
0.203742 -0.0134043 0.0