# vtk DataFile Version 3.0
Mesh NS-CD Problem
ASCII
DATASET UNSTRUCTURED_GRID
POINTS 10839 float
-2 0.3 0.0
-2 0.4 0.0
-2 0.35 0.0
-2 0.45 0.0
-2 0.5 0.0
-2 0.55 0.0
-2 0 0.0
-2 0.05 0.0
-2 0.85 0.0
-2 0.9 0.0
-2 0.1 0.0
-2 0.15 0.0
-2 0.25 0.0
-2 0.2 0.0
-1.96653 0.266667 0.0
-1.96524 0.415385 0.0
-1.96485 0.315 0.0
-1.96348 0.363636 0.0
-1.96414 0.464286 0.0
-2 0.6 0.0
-1.96538 0.584615 0.0
-1.96538 0.538462 0.0
-1.94979 0 0.0
-1.96653 0.0666666 0.0
-1.93306 0.0333333 0.0
-2 0.8 0.0
-2 0.75 0.0
-2 0.7 0.0
-2 0.65 0.0
-1.96249 0.7375 0.0
-1.96666 0.833333 0.0
-2 1 0.0
-2 0.95 0.0
-1.96249 0.8875 0.0
-1.96666 0.933333 0.0
-1.96234 0.1125 0.0
-1.96653 0.166667 0.0
-1.93724 0.225 0.0
-1.92971 0.28 0.0
-1.93048 0.380769 0.0
-1.93048 0.423077 0.0
-1.89958 0.3375 0.0
-1.9292 0.484203 0.0
-1.92117 0.530907 0.0
-1.96363 0.636364 0.0
-1.93076 0.576923 0.0
-1.89958 0 0.0
-1.88703 0.0375 0.0
-1.90963 0.08 0.0
-1.86611 0.0666666 0.0
-1.93749 0.775 0.0
-1.93635 0.672727 0.0
-1.92999 0.72 0.0
-1.93332 0.866667 0.0
-1.92856 0.821429 0.0
-1.94999 1 0.0
-1.92499 0.9625 0.0
-1.92499 0.925 0.0
-1.89998 0.9 0.0
-1.89958 0.125 0.0
-1.92827 0.178571 0.0
-1.89958 0.233333 0.0
-1.89045 0.290909 0.0
-1.86096 0.311538 0.0
-1.89241 0.392857 0.0
-1.89334 0.448489 0.0
-1.85655 0.357143 0.0
-1.89614 0.653846 0.0
-1.89427 0.504121 0.0
-1.8952 0.559753 0.0
-1.89614 0.615385 0.0
-1.84937 0 0.0
-1.83264 0.0333333 0.0
-1.85655 0.107143 0.0
-1.81172 0.075 0.0
-1.89998 0.766667 0.0
-1.89089 0.709091 0.0
-1.87498 0.85 0.0
-1.85998 0.79 0.0
-1.88748 0.8125 0.0
-1.89998 1 0.0
-1.88748 0.9625 0.0
-1.86664 0.933333 0.0
-1.85712 0.892857 0.0
-1.87448 0.15 0.0
-1.86611 0.194444 0.0
-1.83264 0.133333 0.0
-1.83264 0.2625 0.0
-1.82068 0.321429 0.0
-1.85664 0.404762 0.0
-1.85674 0.452381 0.0
-1.85683 0.5 0.0
-1.81184 0.375 0.0
-1.85712 0.642857 0.0
-1.85693 0.547619 0.0
-1.85702 0.595238 0.0
-1.79917 0 0.0
-1.78482 0.0357143 0.0
-1.79917 0.116667 0.0
-1.76569 0.0666666 0.0
-1.85452 0.745455 0.0
-1.82689 0.692308 0.0
-1.81815 0.781818 0.0
-1.82497 0.825 0.0
-1.84997 1 0.0
-1.8333 0.958333 0.0
-1.81247 0.8875 0.0
-1.81247 0.925 0.0
-1.81742 0.218182 0.0
-1.82427 0.175 0.0
-1.77634 0.145455 0.0
-1.79144 0.242308 0.0
-1.78482 0.285714 0.0
-1.77469 0.332653 0.0
-1.81215 0.529762 0.0
-1.81194 0.422619 0.0
-1.81203 0.470238 0.0
-1.76714 0.392857 0.0
-1.81234 0.625 0.0
-1.79732 0.571429 0.0
-1.74896 0 0.0
-1.73222 0.0333333 0.0
-1.75398 0.105 0.0
-1.71883 0.07 0.0
-1.79227 0.730769 0.0
-1.78007 0.679121 0.0
-1.75765 0.769231 0.0
-1.78178 0.818182 0.0
-1.78996 0.86 0.0
-1.79996 1 0.0
-1.78568 0.964286 0.0
-1.76663 0.922222 0.0
-1.76569 0.1875 0.0
-1.73222 0.15 0.0
-1.74896 0.25 0.0
-1.73714 0.304762 0.0
-1.76743 0.537202 0.0
-1.72869 0.343878 0.0
-1.76732 0.485119 0.0
-1.76723 0.440476 0.0
-1.72243 0.410714 0.0
-1.76757 0.607143 0.0
-1.69875 0 0.0
-1.68369 0.035 0.0
-1.69875 0.1125 0.0
-1.66528 0.075 0.0
-1.74341 0.708974 0.0
-1.73324 0.665934 0.0
-1.70441 0.74478 0.0
-1.71423 0.785714 0.0
-1.72303 0.826923 0.0
-1.74541 0.854545 0.0
-1.74541 0.890909 0.0
-1.74996 1 0.0
-1.73745 0.9625 0.0
-1.71359 0.927273 0.0
-1.68716 0.153846 0.0
-1.7131 0.214286 0.0
-1.70725 0.275 0.0
-1.69712 0.321939 0.0
-1.72279 0.589286 0.0
-1.72261 0.5 0.0
-1.7227 0.544643 0.0
-1.6827 0.355102 0.0
-1.67773 0.428571 0.0
-1.70763 0.464286 0.0
-1.70369 0.62449 0.0
-1.64854 0 0.0
-1.63181 0.0375 0.0
-1.64137 0.142857 0.0
-1.61764 0.0769231 0.0
-1.69458 0.703846 0.0
-1.67471 0.657437 0.0
-1.66143 0.727637 0.0
-1.67125 0.768571 0.0
-1.67851 0.821429 0.0
-1.68841 0.861538 0.0
-1.70904 0.890909 0.0
-1.69995 1 0.0
-1.68176 0.963636 0.0
-1.67267 0.927273 0.0
-1.65427 0.187143 0.0
-1.66718 0.231429 0.0
-1.66554 0.3 0.0
-1.67802 0.571429 0.0
-1.67792 0.523809 0.0
-1.6367 0.366327 0.0
-1.63682 0.423469 0.0
-1.62568 0.502976 0.0
-1.6629 0.470238 0.0
-1.65254 0.618367 0.0
-1.6059 0.307143 0.0
-1.59833 0 0.0
-1.58288 0.0384615 0.0
-1.60563 0.169643 0.0
-1.58179 0.112271 0.0
-1.56964 0.0714286 0.0
-1.64574 0.690385 0.0
-1.62827 0.751429 0.0
-1.63371 0.791071 0.0
-1.64279 0.857143 0.0
-1.65378 0.896154 0.0
-1.64994 1 0.0
-1.6363 0.963636 0.0
-1.61916 0.930769 0.0
-1.61345 0.209107 0.0
-1.62126 0.248571 0.0
-1.56989 0.196429 0.0
-1.63324 0.553571 0.0
-1.58846 0.535714 0.0
-1.59408 0.361905 0.0
-1.59161 0.402211 0.0
-1.58832 0.464286 0.0
-1.61504 0.598581 0.0
-1.59683 0.64359 0.0
-1.57899 0.274107 0.0
-1.56176 0.322381 0.0
-1.54812 0 0.0
-1.53378 0.0357143 0.0
-1.54593 0.147619 0.0
-1.53385 0.0732143 0.0
-1.53393 0.110714 0.0
-1.58522 0.704286 0.0
-1.58709 0.745 0.0
-1.58896 0.785714 0.0
-1.60695 0.830357 0.0
-1.60707 0.892857 0.0
-1.59993 1 0.0
-1.58454 0.965385 0.0
-1.57135 0.928571 0.0
-1.55209 0.241071 0.0
-1.5291 0.198214 0.0
-1.56936 0.570918 0.0
-1.54369 0.517857 0.0
-1.5464 0.380952 0.0
-1.54564 0.427721 0.0
-1.54488 0.47449 0.0
-1.55026 0.606122 0.0
-1.54222 0.677143 0.0
-1.52943 0.282857 0.0
-1.52143 0.33619 0.0
-1.49792 0 0.0
-1.49802 0.05 0.0
-1.49822 0.15 0.0
-1.49312 0.1 0.0
-1.5423 0.717143 0.0
-1.54419 0.767857 0.0
-1.54727 0.819048 0.0
-1.57122 0.861905 0.0
-1.53553 0.914286 0.0
-1.54992 1 0.0
-1.53563 0.964286 0.0
-1.49842 0.25 0.0
-1.48831 0.2 0.0
-1.5214 0.558929 0.0
-1.49891 0.5 0.0
-1.49871 0.4 0.0
-1.47631 0.45 0.0
-1.49911 0.6 0.0
-1.49921 0.65 0.0
-1.49931 0.7 0.0
-1.48111 0.35 0.0
-1.48351 0.3 0.0
-1.44771 0 0.0
-1.44782 0.05 0.0
-1.44804 0.15 0.0
-1.44793 0.1 0.0
-1.49941 0.75 0.0
-1.49951 0.8 0.0
-1.49981 0.95 0.0
-1.49961 0.85 0.0
-1.49971 0.9 0.0
-1.49991 1 0.0
-1.44826 0.25 0.0
-1.43815 0.2 0.0
-1.47151 0.55 0.0
-1.44881 0.5 0.0
-1.44859 0.4 0.0
-1.42619 0.45 0.0
-1.44913 0.65 0.0
-1.44902 0.6 0.0
-1.44935 0.75 0.0
-1.44924 0.7 0.0
-1.43972 0.35 0.0
-1.43336 0.3 0.0
-1.3975 0 0.0
-1.39762 0.05 0.0
-1.39786 0.15 0.0
-1.39274 0.1 0.0
-1.44957 0.85 0.0
-1.44946 0.8 0.0
-1.4523 0.95 0.0
-1.44968 0.9 0.0
-1.4499 1 0.0
-1.3981 0.25 0.0
-1.38798 0.2 0.0
-1.42141 0.55 0.0
-1.3987 0.5 0.0
-1.39834 0.35 0.0
-1.37845 0.4 0.0
-1.37607 0.45 0.0
-1.40784 0.65 0.0
-1.39894 0.6 0.0
-1.41185 0.75 0.0
-1.39918 0.7 0.0
-1.38322 0.3 0.0
-1.34729 0 0.0
-1.34492 0.05 0.0
-1.34018 0.15 0.0
-1.34255 0.1 0.0
-1.40707 0.85 0.0
-1.39941 0.8 0.0
-1.39977 0.95 0.0
-1.39965 0.9 0.0
-1.39989 1 0.0
-1.33781 0.2 0.0
-1.33544 0.25 0.0
-1.37131 0.55 0.0
-1.34859 0.5 0.0
-1.33833 0.4 0.0
-1.3307 0.35 0.0
-1.32595 0.45 0.0
-1.34885 0.6 0.0
-1.36655 0.65 0.0
-1.36179 0.75 0.0
-1.34911 0.7 0.0
-1.33307 0.3 0.0
-1.29708 0 0.0
-1.29722 0.05 0.0
-1.2975 0.15 0.0
-1.29236 0.1 0.0
-1.35703 0.85 0.0
-1.34937 0.8 0.0
-1.34988 1 0.0
-1.34962 0.9 0.0
-1.35226 0.95 0.0
-1.28528 0.25 0.0
-1.28764 0.2 0.0
-1.28931 0.35 0.0
-1.32121 0.55 0.0
-1.29848 0.5 0.0
-1.28709 0.45 0.0
-1.2982 0.4 0.0
-1.29876 0.6 0.0
-1.31647 0.65 0.0
-1.29918 0.75 0.0
-1.29904 0.7 0.0
-1.28292 0.3 0.0
-1.24687 0 0.0
-1.24702 0.05 0.0
-1.24717 0.1 0.0
-1.24732 0.15 0.0
-1.29946 0.85 0.0
-1.29932 0.8 0.0
-1.29987 1 0.0
-1.29974 0.95 0.0
-1.30462 0.9 0.0
-1.24762 0.25 0.0
-1.23747 0.2 0.0
-1.24792 0.35 0.0
-1.22807 0.4 0.0
-1.27111 0.55 0.0
-1.24837 0.5 0.0
-1.24822 0.45 0.0
-1.24867 0.6 0.0
-1.26639 0.65 0.0
-1.26167 0.75 0.0
-1.24897 0.7 0.0
-1.23277 0.3 0.0
-1.19667 0 0.0
-1.19683 0.05 0.0
-1.18964 0.15 0.0
-1.19198 0.1 0.0
-1.25695 0.85 0.0
-1.24927 0.8 0.0
-1.25223 0.95 0.0
-1.24987 1 0.0
-1.24957 0.9 0.0
-1.1873 0.2 0.0
-1.18496 0.25 0.0
-1.18028 0.35 0.0
-1.17794 0.4 0.0
-1.1981 0.45 0.0
-1.19842 0.55 0.0
-1.19826 0.5 0.0
-1.19858 0.6 0.0
-1.19874 0.65 0.0
-1.19906 0.75 0.0
-1.1989 0.7 0.0
-1.18262 0.3 0.0
-1.14646 0 0.0
-1.14663 0.05 0.0
-1.1418 0.1 0.0
-1.13713 0.2 0.0
-1.14697 0.15 0.0
-1.20691 0.85 0.0
-1.20926 0.8 0.0
-1.20221 0.95 0.0
-1.19986 1 0.0
-1.20456 0.9 0.0
-1.13997 0.3 0.0
-1.14731 0.25 0.0
-1.13781 0.4 0.0
-1.13014 0.35 0.0
-1.12548 0.45 0.0
-1.14815 0.5 0.0
-1.15962 0.55 0.0
-1.14849 0.6 0.0
-1.15745 0.65 0.0
-1.16155 0.75 0.0
-1.14917 0.8 0.0
-1.14883 0.7 0.0
-1.09625 0 0.0
-1.09661 0.1 0.0
-1.09393 0.05 0.0
-1.09697 0.2 0.0
-1.08929 0.15 0.0
-1.15687 0.85 0.0
-1.14985 1 0.0
-1.15219 0.95 0.0
-1.14951 0.9 0.0
-1.09733 0.3 0.0
-1.08465 0.25 0.0
-1.09769 0.4 0.0
-1.08 0.35 0.0
-1.08661 0.45 0.0
-1.09804 0.5 0.0
-1.12082 0.55 0.0
-1.10916 0.8 0.0
-1.10629 0.7 0.0
-1.0984 0.6 0.0
-1.11616 0.65 0.0
-1.11149 0.75 0.0
-1.04604 0 0.0
-1.04623 0.05 0.0
-1.04642 0.1 0.0
-1.0468 0.2 0.0
-1.03911 0.15 0.0
-1.09948 0.9 0.0
-1.0993 0.85 0.0
-1.09984 1 0.0
-1.09966 0.95 0.0
-1.04718 0.3 0.0
-1.03449 0.25 0.0
-1.04756 0.4 0.0
-1.02986 0.35 0.0
-1.04775 0.45 0.0
-1.04794 0.5 0.0
-1.04813 0.55 0.0
-1.05911 0.8 0.0
-1.04831 0.6 0.0
-1.06376 0.7 0.0
-1.0485 0.65 0.0
-1.04888 0.75 0.0
-0.995833 0 0.0
-0.991231 0.1 0.0
-0.996033 0.05 0.0
-0.986629 0.2 0.0
-0.98893 0.15 0.0
-1.05447 0.9 0.0
-1.04926 0.85 0.0
-1.04983 1 0.0
-1.04964 0.95 0.0
-0.984328 0.25 0.0
-0.99703 0.3 0.0
-0.997429 0.4 0.0
-0.997628 0.45 0.0
-0.979726 0.35 0.0
-0.997827 0.5 0.0
-0.998027 0.55 0.0
-0.998226 0.6 0.0
-0.961416 0.475 0.0
-1.00907 0.8 0.0
-0.998426 0.65 0.0
-0.998625 0.7 0.0
-1.01138 0.75 0.0
-0.945625 0 0.0
-0.946044 0.1 0.0
-0.943334 0.05 0.0
-0.946463 0.2 0.0
-0.938752 0.15 0.0
-1.00444 0.9 0.0
-1.00675 0.85 0.0
-0.999821 1 0.0
-1.00213 0.95 0.0
-0.93417 0.25 0.0
-0.946881 0.3 0.0
-0.9473 0.4 0.0
-0.929588 0.35 0.0
-0.925005 0.45 0.0
-0.960371 0.525 0.0
-0.959325 0.575 0.0
-0.958279 0.625 0.0
-0.922714 0.5 0.0
-0.959017 0.8 0.0
-0.957233 0.675 0.0
-0.952999 0.7125 0.0
-0.948766 0.75 0.0
-0.895417 0 0.0
-0.895855 0.1 0.0
-0.893136 0.05 0.0
-0.896294 0.2 0.0
-0.888573 0.15 0.0
-0.949184 0.85 0.0
-0.954415 0.9 0.0
-0.949812 1 0.0
-0.949603 0.95 0.0
-0.884011 0.25 0.0
-0.896733 0.3 0.0
-0.874887 0.45 0.0
-0.879449 0.35 0.0
-0.897171 0.4 0.0
-0.920423 0.55 0.0
-0.918132 0.6 0.0
-0.915841 0.65 0.0
-0.872606 0.5 0.0
-0.908968 0.8 0.0
-0.91355 0.7 0.0
-0.898707 0.75 0.0
-0.845208 0 0.0
-0.845438 0.05 0.0
-0.845667 0.1 0.0
-0.845896 0.15 0.0
-0.833853 0.25 0.0
-0.846126 0.2 0.0
-0.899146 0.85 0.0
-0.904386 0.9 0.0
-0.899584 0.95 0.0
-0.899804 1 0.0
-0.838062 0.35 0.0
[...]
POINT_DATA 10839
VECTORS Velocity float
0.21 0 0.0
0.24 0 0.0
0.2275 0 0.0
0.2475 0 0.0
0.25 0 0.0
0.2475 0 0.0
0 0 0.0
0.0475 0 0.0
0.1275 0 0.0
0.09 0 0.0
0.09 0 0.0
0.1275 0 0.0
0.1875 0 0.0
0.16 0 0.0
0.195557 -2.31763e-05 0.0
0.242841 -3.14319e-05 0.0
0.215776 -2.75166e-05 0.0
0.231406 -3.09611e-05 0.0
0.248725 -3.34269e-05 0.0
0.24 0 0.0
0.24284 -3.13127e-05 0.0
0.24852 -3.21773e-05 0.0
0 0 0.0
0.0622239 -4.14147e-06 0.0
0.0322269 -2.73732e-06 0.0
0.16 0 0.0
0.1875 0 0.0
0.21 0 0.0
0.2275 0 0.0
0.193592 -2.59395e-05 0.0
0.138887 -1.45371e-05 0.0
0 0 0.0
0.0475 0 0.0
0.0998416 -1.01762e-05 0.0
0.0622206 -4.1918e-06 0.0
0.0998461 -1.06325e-05 0.0
0.138891 -1.46838e-05 0.0
0.17438 -3.65112e-05 0.0
0.201605 -4.98294e-05 0.0
0.235787 -6.06153e-05 0.0
0.244085 -6.33547e-05 0.0
0.223601 -8.11504e-05 0.0
0.249751 -6.61111e-05 0.0
0.249044 -7.35781e-05 0.0
0.231404 -3.13852e-05 0.0
0.244081 -6.25083e-05 0.0
0 0 0.0
0.0361078 -5.24134e-06 0.0
0.0736123 -1.45867e-05 0.0
0.0622483 -1.59238e-05 0.0
0.174371 -3.5889e-05 0.0
0.220162 -4.96114e-05 0.0
0.201595 -4.97471e-05 0.0
0.115549 -2.17117e-05 0.0
0.146676 -3.34301e-05 0.0
0 0 0.0
0.0360875 -3.56183e-06 0.0
0.0693663 -1.14601e-05 0.0
0.0899841 -2.25452e-05 0.0
0.109391 -3.04059e-05 0.0
0.146691 -3.28483e-05 0.0
0.178901 -6.09618e-05 0.0
0.206293 -7.94455e-05 0.0
0.2145 -0.000106713 0.0
0.238526 -9.46823e-05 0.0
0.24735 -9.84726e-05 0.0
0.229606 -0.000120281 0.0
0.226324 -8.49442e-05 0.0
0.249983 -9.88726e-05 0.0
0.246427 -9.61589e-05 0.0
0.23668 -9.05628e-05 0.0
0 0 0.0
0.0322499 -5.89365e-06 0.0
0.0956953 -3.44084e-05 0.0
0.0694272 -2.58902e-05 0.0
0.178877 -5.98393e-05 0.0
0.206269 -7.97438e-05 0.0
0.127477 -4.62912e-05 0.0
0.165874 -7.54808e-05 0.0
0.152326 -5.43269e-05 0.0
0 0 0.0
0.0360798 -5.08711e-06 0.0
0.0621966 -1.57798e-05 0.0
0.0956314 -3.5053e-05 0.0
0.127523 -4.68314e-05 0.0
0.15666 -6.77991e-05 0.0
0.115599 -5.35932e-05 0.0
0.193624 -0.000111158 0.0
0.21814 -0.000140292 0.0
0.240939 -0.000127995 0.0
0.247737 -0.000132595 0.0
0.25 -0.000133923 0.0
0.234396 -0.000162057 0.0
0.229577 -0.000118176 0.0
0.247728 -0.000132107 0.0
0.24092 -0.000127412 0.0
0 0 0.0
0.0344857 -8.11968e-06 0.0
0.103118 -5.2535e-05 0.0
0.0622998 -2.6174e-05 0.0
0.189728 -9.42592e-05 0.0
0.21299 -0.000131033 0.0
0.170537 -0.000101839 0.0
0.144332 -7.58279e-05 0.0
0 0 0.0
0.0398989 -8.69487e-06 0.0
0.099789 -4.77995e-05 0.0
0.0693233 -2.55021e-05 0.0
0.170622 -0.000102462 0.0
0.144419 -7.77852e-05 0.0
0.124373 -7.86536e-05 0.0
0.183647 -0.000129162 0.0
0.204129 -0.00015437 0.0
0.222035 -0.000181402 0.0
0.249109 -0.00017508 0.0
0.244025 -0.000170814 0.0
0.249119 -0.000175292 0.0
0.238549 -0.00020558 0.0
0.234354 -0.000160393 0.0
0.244883 -0.000184201 0.0
0 0 0.0
0.0322895 -8.57787e-06 0.0
0.0940695 -5.50979e-05 0.0
0.0652121 -3.3e-05 0.0
0.196699 -0.000140217 0.0
0.217874 -0.000171856 0.0
0.177443 -0.000141981 0.0
0.148694 -9.96279e-05 0.0
0.120333 -7.00731e-05 0.0
0 0 0.0
0.0343922 -8.24096e-06 0.0
0.0716479 -3.31903e-05 0.0
0.15242 -0.000112166 0.0
0.127609 -9.7356e-05 0.0
0.187574 -0.000159676 0.0
0.211947 -0.000198498 0.0
0.248606 -0.000216472 0.0
0.225681 -0.000224544 0.0
0.249782 -0.000218331 0.0
0.246472 -0.00021493 0.0
0.242061 -0.000251037 0.0
0.238492 -0.000203976 0.0
0 0 0.0
0.0338705 -1.07278e-05 0.0
0.0999854 -7.32965e-05 0.0
0.0695368 -4.38439e-05 0.0
0.206265 -0.000184372 0.0
0.222408 -0.000214602 0.0
0.189982 -0.000190953 0.0
0.168261 -0.000154673 0.0
0.143011 -0.000119097 0.0
0.1242 -8.83333e-05 0.0
0.0970896 -5.96183e-05 0.0
0 0 0.0
0.0360233 -1.04486e-05 0.0
0.0673207 -3.54677e-05 0.0
0.130326 -0.000117345 0.0
0.168476 -0.000156835 0.0
0.199467 -0.000204298 0.0
0.218373 -0.000239365 0.0
0.241994 -0.00025023 0.0
0.249999 -0.000261839 0.0
0.247989 -0.000258428 0.0
0.229076 -0.000269637 0.0
0.244934 -0.000297993 0.0
0.248739 -0.000274839 0.0
0.234449 -0.000255738 0.0
0 0 0.0
0.0362268 -1.3813e-05 0.0
0.122647 -0.000119989 0.0
0.0712178 -5.17615e-05 0.0
0.208356 -0.000224314 0.0
0.225132 -0.000266348 0.0
0.198057 -0.000232148 0.0
0.177735 -0.000192745 0.0
0.146536 -0.000142755 0.0
0.119142 -0.000100279 0.0
0.0970589 -6.74216e-05 0.0
0 0 0.0
0.0349425 -1.16672e-05 0.0
0.0672857 -3.98179e-05 0.0
0.152291 -0.000163609 0.0
0.178009 -0.000199763 0.0
0.210109 -0.00025233 0.0
0.24486 -0.000296079 0.0
0.249419 -0.000304742 0.0
0.232218 -0.000316507 0.0
0.244192 -0.000338518 0.0
0.249986 -0.000359358 0.0
0.24913 -0.000320687 0.0
0.235917 -0.000304765 0.0
0.212953 -0.000307723 0.0
0 0 0.0
0.0371536 -1.62412e-05 0.0
0.141096 -0.000166721 0.0
0.0999411 -0.000100972 0.0
0.0665854 -5.03467e-05 0.0
0.213637 -0.000271449 0.0
0.18662 -0.0002362 0.0
0.165098 -0.000192748 0.0
0.122254 -0.000119735 0.0
0.0928775 -7.37186e-05 0.0
0 0 0.0
0.0349142 -1.29912e-05 0.0
0.0642375 -4.22211e-05 0.0
0.165585 -0.000208868 0.0
0.186957 -0.000245427 0.0
0.158107 -0.000218332 0.0
0.247092 -0.000344949 0.0
0.24869 -0.000395549 0.0
0.231042 -0.000355347 0.0
0.240518 -0.000378322 0.0
0.248752 -0.000397287 0.0
0.240207 -0.000349561 0.0
0.229264 -0.000342167 0.0
0.199169 -0.000301492 0.0
0.218621 -0.000359936 0.0
0 0 0.0
0.0346398 -1.58496e-05 0.0
0.12615 -0.000161646 0.0
0.0681607 -5.65926e-05 0.0
0.0987987 -0.000109474 0.0
0.208096 -0.000308291 0.0
0.189776 -0.000269258 0.0
0.168144 -0.000224172 0.0
0.140637 -0.000163461 0.0
0.0954247 -8.74407e-05 0.0
0 0 0.0
0.0332597 -1.32827e-05 0.0
0.0660707 -5.02774e-05 0.0
0.183207 -0.000284896 0.0
0.159243 -0.000244237 0.0
0.2449 -0.000406045 0.0
0.249657 -0.00044686 0.0
0.235949 -0.000415362 0.0
0.244848 -0.000437307 0.0
0.249371 -0.000447922 0.0
0.238626 -0.000409293 0.0
0.218434 -0.000368585 0.0
0.203088 -0.000352053 0.0
0.223355 -0.000411827 0.0
0 0 0.0
0.0477904 -3.1198e-05 0.0
0.127896 -0.000183595 0.0
0.0903991 -0.000102117 0.0
0.202626 -0.000329709 0.0
0.177989 -0.000272169 0.0
0.147912 -0.000205799 0.0
0.118741 -0.000136102 0.0
0.0780475 -7.40468e-05 0.0
0 0 0.0
0.0342401 -1.57192e-05 0.0
0.187812 -0.000337909 0.0
0.160378 -0.00027175 0.0
0.246452 -0.00046236 0.0
0.249992 -0.000500917 0.0
0.240125 -0.000479259 0.0
0.247563 -0.000525068 0.0
0.239865 -0.000466873 0.0
0.227306 -0.000430776 0.0
0.20975 -0.000383037 0.0
0.227706 -0.000468154 0.0
0.210271 -0.000414357 0.0
0 0 0.0
0.0478487 -3.40066e-05 0.0
0.127986 -0.000203622 0.0
0.0904756 -0.000110719 0.0
0.187198 -0.000325372 0.0
0.15965 -0.000257142 0.0
0.0472125 -3.15622e-05 0.0
0.127116 -0.000180249 0.0
0.0896161 -0.00010178 0.0
0 0 0.0
0.187885 -0.000381084 0.0
0.160465 -0.000304311 0.0
0.247417 -0.000522664 0.0
0.249987 -0.000563275 0.0
0.240152 -0.000541822 0.0
0.247574 -0.000591104 0.0
0.227262 -0.000480877 0.0
0.239833 -0.000522069 0.0
0.187131 -0.000362919 0.0
0.209694 -0.00042721 0.0
0.227742 -0.000515939 0.0
0.210332 -0.000468559 0.0
0 0 0.0
0.0479111 -3.57004e-05 0.0
0.128089 -0.000224411 0.0
0.0905786 -0.000120743 0.0
0.127031 -0.000203211 0.0
0.159574 -0.000287767 0.0
0.0471553 -3.59233e-05 0.0
0.0895332 -0.000114868 0.0
0 0 0.0
0.187969 -0.000428437 0.0
0.160565 -0.000340001 0.0
0.247396 -0.000583652 0.0
0.24998 -0.000629985 0.0
0.227781 -0.000569481 0.0
0.240192 -0.000638702 0.0
0.247583 -0.000663529 0.0
0.22722 -0.000521972 0.0
0.239795 -0.000579853 0.0
0.187076 -0.000390999 0.0
0.209631 -0.000472538 0.0
0.210401 -0.000528825 0.0
0 0 0.0
0.0479817 -3.72675e-05 0.0
0.128224 -0.000249728 0.0
0.0906835 -0.000128932 0.0
0.126954 -0.000223608 0.0
0.15949 -0.000319704 0.0
0.0470837 -4.16776e-05 0.0
0.0894408 -0.000130144 0.0
0 0 0.0
0.16068 -0.000379382 0.0
0.188091 -0.000495503 0.0
0.24737 -0.000648227 0.0
0.249969 -0.000701867 0.0
0.240218 -0.000702938 0.0
0.227856 -0.000669133 0.0
0.247591 -0.000741904 0.0
0.239751 -0.000639226 0.0
0.227175 -0.000565196 0.0
0.186999 -0.00042996 0.0
0.209563 -0.00051783 0.0
0.21048 -0.000598401 0.0
0 0 0.0
0.0480495 -3.84999e-05 0.0
0.128341 -0.00027143 0.0
0.0907994 -0.000137688 0.0
0.126855 -0.000250356 0.0
0.1594 -0.000353438 0.0
0 0 0.0
0.0893372 -0.000148928 0.0
0.0470086 -4.81502e-05 0.0
0.188206 -0.000562899 0.0
0.160814 -0.000426144 0.0
0.227906 -0.000740926 0.0
0.247338 -0.000716978 0.0
0.249952 -0.000780101 0.0
0.247595 -0.000809679 0.0
0.240243 -0.000772596 0.0
0.239699 -0.000700541 0.0
0.227112 -0.000617793 0.0
0.186894 -0.000477648 0.0
0.209487 -0.00056285 0.0
0.210569 -0.000678053 0.0
0 0 0.0
0.0481223 -3.99478e-05 0.0
0.090916 -0.00014726 0.0
0.128496 -0.000301895 0.0
0.126734 -0.000283484 0.0
0.159305 -0.000387431 0.0
0 0 0.0
0.0469144 -5.63353e-05 0.0
0.0892358 -0.000167127 0.0
0.188306 -0.000620583 0.0
0.160972 -0.000484053 0.0
0.227956 -0.000822689 0.0
0.240284 -0.00091454 0.0
0.247296 -0.000789762 0.0
0.249927 -0.000864465 0.0
0.247595 -0.000883022 0.0
0.239636 -0.000762683 0.0
0.227041 -0.000669452 0.0
0.186826 -0.000504638 0.0
0.209404 -0.000603933 0.0
0.21067 -0.000773978 0.0
0 0 0.0
0.0482018 -4.25714e-05 0.0
0.128708 -0.000351934 0.0
0.0910782 -0.000167207 0.0
0.126639 -0.000308145 0.0
0.159207 -0.000419094 0.0
0.0468159 -6.42989e-05 0.0
0 0 0.0
0.0891003 -0.00019049 0.0
0.161154 -0.000558778 0.0
0.188492 -0.00073931 0.0
0.228048 -0.000982113 0.0
0.240309 -0.00103772 0.0
0.247586 -0.000990571 0.0
0.247215 -0.000899742 0.0
0.24989 -0.000959119 0.0
0.239559 -0.000825428 0.0
0.226928 -0.000732765 0.0
0.18671 -0.000540387 0.0
0.209312 -0.000638899 0.0
0.210781 -0.000890929 0.0
0 0 0.0
0.0482899 -4.83302e-05 0.0
0.0912524 -0.000194359 0.0
0.161367 -0.000654742 0.0
0.12889 -0.000403761 0.0
0.126525 -0.000332926 0.0
0.159126 -0.000439519 0.0
0.0466987 -7.30281e-05 0.0
0 0 0.0
0.0889783 -0.000208924 0.0
0.210883 -0.00100987 0.0
0.188622 -0.000832975 0.0
0.240323 -0.00115006 0.0
0.228113 -0.00113475 0.0
0.247552 -0.0011676 0.0
0.249836 -0.00106105 0.0
0.247154 -0.000962504 0.0
0.239464 -0.000884773 0.0
0.226843 -0.000766201 0.0
0.186634 -0.00055332 0.0
0.159008 -0.000455933 0.0
0.209209 -0.00066242 0.0
0 0 0.0
0.0914431 -0.000235772 0.0
0.0484046 -5.81877e-05 0.0
0.161561 -0.000759459 0.0
0.129182 -0.000507639 0.0
0.12641 -0.000347333 0.0
0 0 0.0
0.04657 -8.04711e-05 0.0
0.0888255 -0.000224144 0.0
0.210994 -0.00115042 0.0
0.188862 -0.00103275 0.0
0.240328 -0.00127516 0.0
0.228177 -0.0013158 0.0
0.247509 -0.00128334 0.0
0.249755 -0.00117494 0.0
0.24708 -0.00102907 0.0
0.158926 -0.000449301 0.0
0.20911 -0.000670184 0.0
0.239343 -0.000939813 0.0
0.226746 -0.000793321 0.0
0.186528 -0.000554311 0.0
0 0 0.0
0.0485352 -7.3244e-05 0.0
0.0916961 -0.000302786 0.0
0.161836 -0.000924861 0.0
0.129488 -0.00063673 0.0
0.0886894 -0.000224117 0.0
0.12628 -0.000341771 0.0
0 0 0.0
0.0464296 -8.35381e-05 0.0
0.211125 -0.00135615 0.0
0.189079 -0.00124115 0.0
0.240317 -0.00146014 0.0
0.228229 -0.00153268 0.0
0.247458 -0.00141057 0.0
0.249649 -0.00130103 0.0
0.246894 -0.00115176 0.0
0.158827 -0.000415864 0.0
0.239192 -0.000990071 0.0
0.208997 -0.000663055 0.0
0.226551 -0.000816571 0.0
0.186385 -0.000519681 0.0
0 0 0.0
0.0920597 -0.000407211 0.0
0.0487165 -0.000103788 0.0
0.162216 -0.00119297 0.0
0.129856 -0.000812262 0.0
0.0885786 -0.000207025 0.0
0.126178 -0.000310881 0.0
0 0 0.0
0.046295 -8.53764e-05 0.0
0.189313 -0.00150404 0.0
0.211261 -0.00161014 0.0
0.240282 -0.00168172 0.0
0.247357 -0.00159157 0.0
0.228264 -0.00179139 0.0
0.249497 -0.00143863 0.0
0.246709 -0.00124535 0.0
0.238997 -0.0010336 0.0
0.248918 -0.00165296 0.0
0.158723 -0.00034587 0.0
0.226358 -0.000814772 0.0
0.208787 -0.000617047 0.0
0.186281 -0.00047233 0.0
0 0 0.0
0.0924388 -0.000524359 0.0
0.0489711 -0.000139868 0.0
0.162502 -0.00142235 0.0
0.130296 -0.00103832 0.0
0.0884802 -0.00016983 0.0
0.1261 -0.000255997 0.0
0 0 0.0
0.0461829 -7.82212e-05 0.0
0.189562 -0.00182655 0.0
0.211389 -0.00191896 0.0
0.240202 -0.00193222 0.0
0.228275 -0.00210239 0.0
0.24712 -0.00190769 0.0
0.248557 -0.00144008 0.0
0.243284 -0.0011904 0.0
0.233103 -0.000927837 0.0
0.24917 -0.00167752 0.0
0.158622 -0.000230532 0.0
0.218009 -0.000674214 0.0
0.203444 -0.0004983 0.0
0.186092 -0.000344621 0.0
0 0 0.0
0.0929669 -0.000688448 0.0
0.0492952 -0.000186289 0.0
0.162903 -0.00176829 0.0
0.130827 -0.00131977 0.0
0.126032 -0.000134343 0.0
0.0884259 -0.000107083 0.0
0 0 0.0
0.0460928 -5.93936e-05 0.0
0.189822 -0.00221716 0.0
0.211506 -0.00228753 0.0
0.246884 -0.00215635 0.0
0.228249 -0.00246237 0.0
0.240088 -0.00223146 0.0
0.246315 -0.001397 0.0
0.238569 -0.00108375 0.0
0.225936 -0.000768086 0.0
0.248862 -0.00185847 0.0
0.158511 -6.99642e-05 0.0
0.208404 -0.000472638 0.0
0.185896 -0.000195121 0.0
0 0 0.0
0.0497035 -0.000241679 0.0
0.0936208 -0.000883682 0.0
0.131367 -0.00160343 0.0
0.190092 -0.0026744 0.0
0.163353 -0.00217874 0.0
0.126005 1.68223e-05 0.0
0.0884282 -1.94827e-05 0.0
0.0460411 -3.53992e-05 0.0
0 0 0.0
0.228197 -0.00280527 0.0
0.211602 -0.00272258 0.0
0.246651 -0.0023767 0.0
0.239905 -0.0025759 0.0
0.225593 -0.000708895 0.0
0.245967 -0.00149775 0.0
0.238207 -0.00110447 0.0
0.248475 -0.00205946 0.0
0.185672 2.2766e-06 0.0
0.158387 0.000189686 0.0
0.208012 -0.000299028 0.0
0 0 0.0
0.0502528 -0.000314605 0.0
0.0945351 -0.00112496 0.0
0.132118 -0.0019876 0.0
0.190297 -0.00307255 0.0
0.163978 -0.002767 0.0
0.126035 0.000207291 0.0
0.0885273 0.000109164 0.0
0.0460596 -4.46245e-07 0.0
0 0 0.0
0.126134 0.00043611 0.0
0.228106 -0.0031757 0.0
0.211689 -0.00339149 0.0
0.239543 -0.00314063 0.0
0.246368 -0.00261459 0.0
0.224999 -0.000595496 0.0
0.23776 -0.00111541 0.0
0.245529 -0.0016084 0.0
0.247985 -0.0022871 0.0
0.1854 0.000242234 0.0
0.158275 0.000448247 0.0
0.207616 -0.000129789 0.0
0 0 0.0
0.0509311 -0.000386302 0.0
0.0955598 -0.00137952 0.0
0.133 -0.00241289 0.0
0.190583 -0.00364728 0.0
0.164574 -0.00331974 0.0
0.0461328 3.53914e-05 0.0
0.0887098 0.000238034 0.0
0 0 0.0
0.126263 0.000650135 0.0
0.22794 -0.00369426 0.0
0.211712 -0.00397892 0.0
0.239174 -0.00359932 0.0
0.245911 -0.0029649 0.0
0.224537 -0.000519929 0.0
0.237213 -0.00112425 0.0
0.24739 -0.00253926 0.0
0.24472 -0.00178838 0.0
0.185157 0.000444225 0.0
0.158173 0.000736801 0.0
0.207147 6.9913e-05 0.0
0 0 0.0
0.0517668 -0.000474576 0.0
0.0967853 -0.00165447 0.0
0.134215 -0.00295032 0.0
0.190957 -0.00445953 0.0
0.211704 -0.0046323 0.0
0.165259 -0.00392647 0.0
0.0462918 7.87459e-05 0.0
0.0890029 0.000379322 0.0
0 0 0.0
0.126497 0.000908464 0.0
0.227614 -0.00447655 0.0
0.23882 -0.00400944 0.0
0.245354 -0.00335305 0.0
0.246859 -0.00275452 0.0
0.224013 -0.000426317 0.0
0.236539 -0.00114479 0.0
0.244 -0.00192988 0.0
0.158093 0.00104942 0.0
0.184796 0.000730773 0.0
0.206579 0.000284298 0.0
0 0 0.0
0.0528005 -0.000574927 0.0
0.0982319 -0.00195068 0.0
0.135467 -0.0034528 0.0
0.191188 -0.00499298 0.0
0.211652 -0.00533537 0.0
0.166045 -0.00457765 0.0
0.0465353 0.000118209 0.0
0.0894205 0.000528735 0.0
0 0 0.0
0.158032 0.00130324 0.0
0.0899596 0.000680597 0.0
0.126866 0.00120066 0.0
0.22727 -0.00514768 0.0
0.238392 -0.00444151 0.0
0.244336 -0.00399199 0.0
0.246261 -0.00298122 0.0
0.243364 -0.00206236 0.0
0.223266 -0.000313217 0.0
0.235401 -0.00117678 0.0
0.184274 0.00110968 0.0
0.206019 0.000468122 0.0
0.226944 -0.00572474 0.0
0 0 0.0
0.053961 -0.000667764 0.0
0.136929 -0.00397717 0.0
0.0998932 -0.0022597 0.0
0.211572 -0.0061091 0.0
0.191626 -0.00594166 0.0
0.166938 -0.00526271 0.0
0.0468954 0.000171404 0.0
0 0 0.0
0.183908 0.00132555 0.0
0.157989 0.00161033 0.0
0.127308 0.0014279 0.0
0.0472584 0.000210912 0.0
0.0906112 0.000809892 0.0
0.237776 -0.00503709 0.0
0.243671 -0.00437929 0.0
0.245334 -0.00332269 0.0
0.244547 -0.00361195 0.0
0.24263 -0.00220031 0.0
0.222379 -0.000217015 0.0
0.234388 -0.00122439 0.0
0.205385 0.000659807 0.0
0.226546 -0.00634423 0.0
0.0552121 -0.000761805 0.0
0 0 0.0
0.138311 -0.0044327 0.0
0.101777 -0.00256479 0.0
0.21146 -0.00693077 0.0
0.191909 -0.00654622 0.0
0.167969 -0.00598314 0.0
0 0 0.0
0.183413 0.00161274 0.0
0.157975 0.00193269 0.0
0.127738 0.00160789 0.0
0.0477195 0.000236121 0.0
0.0913427 0.000914043 0.0
0.236713 -0.00597402 0.0
0.242942 -0.00478697 0.0
0.243667 -0.00391482 0.0
0.241038 -0.00250715 0.0
0.221373 -0.000125177 0.0
0.233258 -0.00129129 0.0
0.204284 0.000920107 0.0
0.226013 -0.00715695 0.0
0 0 0.0
0.0567287 -0.000854641 0.0
0.140143 -0.00497921 0.0
0.103692 -0.00284706 0.0
0.169133 -0.00671936 0.0
0.211325 -0.00781638 0.0
0.192468 -0.00759845 0.0
0 0 0.0
0 0 0.0
0.18286 0.00184884 0.0
0.158027 0.00214794 0.0
0.128343 0.00176369 0.0
0.0921683 0.000981761 0.0
0.0482382 0.000251699 0.0
0.235813 -0.00671112 0.0
0.241859 -0.00537311 0.0
0.232223 -0.00137138 0.0
0.242367 -0.00436857 0.0
0.239716 -0.00277918 0.0
0.220216 -6.78031e-05 0.0
0.203308 0.00108763 0.0
0.235006 -0.00735703 0.0
0.225386 -0.00803204 0.0
0.0584422 -0.000958736 0.0
0.106036 -0.00316249 0.0
0.142201 -0.00554489 0.0
0.170206 -0.0073423 0.0
0.211189 -0.00874923 0.0
0.192845 -0.00827947 0.0
0 0 0.0
0 0 0.0
0.158082 0.00227646 0.0
0.182162 0.00208252 0.0
0.0929497 0.00101183 0.0
0.129109 0.00186474 0.0
0.048752 0.000258135 0.0
0.24005 -0.00629817 0.0
0.240884 -0.00488121 0.0
0.202258 0.00121077 0.0
0.231093 -0.00146577 0.0
0.238598 -0.00302196 0.0
0.21845 -4.14917e-05 0.0
0.234129 -0.0080187 0.0
0.224453 -0.00931582 0.0
0.211037 -0.00974842 0.0
0.060388 -0.00108617 0.0
0.108622 -0.00349591 0.0
0.144851 -0.00620805 0.0
0.171677 -0.00812732 0.0
0.193594 -0.00945358 0.0
0 0 0.0
0 0 0.0
0.158251 0.00237037 0.0
0.181591 0.00217361 0.0
0.0939513 0.000988639 0.0
0.129857 0.00186636 0.0
0.0493299 0.000255721 0.0
0.237364 -0.00329256 0.0
0.239241 -0.00543869 0.0
0.238591 -0.00703981 0.0
0.201129 0.00128131 0.0
0.229536 -0.00163556 0.0
0.216966 -9.08695e-05 0.0
0.181044 0.00217556 0.0
0.232396 -0.00930765 0.0
0 0 0.0
0.223647 -0.0103715 0.0
0.194311 -0.0104628 0.0
0.210891 -0.0108072 0.0
0.062355 -0.0011905 0.0
0.147072 -0.00672807 0.0
0.111753 -0.00389537 0.0
0.173699 -0.00914282 0.0
0 0 0.0
0 0 0.0
0 0 0.0
0 0 0.0
0 0 0.0
0.0498251 0.000233645 0.0
0.130662 0.00177291 0.0
0.158469 0.00232497 0.0
0.0947374 0.000922794 0.0
0.235616 -0.00367181 0.0
0.237411 -0.00606784 0.0
0.236991 -0.0078443 0.0
0.215653 -0.000157402 0.0
0.199927 0.00127069 0.0
0.22707 -0.00195118 0.0
0.198883 0.00119416 0.0
0.180641 0.00210805 0.0
0.230985 -0.0103388 0.0
0.222783 -0.0114846 0.0
0 0 0.0
6.57439e-05 -1.23998e-05 0.0
0 0 0.0
-0.000552489 0.0042019 0.0
0.210775 -0.011947 0.0
0.194933 -0.0112482 0.0
0.0647396 -0.00133174 0.0
0.149852 -0.00736903 0.0
0.114872 -0.00429747 0.0
0.175635 -0.0100518 0.0
0 0 0.0
0 0 0.0
0 0 0.0
-0.000451811 0.00263706 0.0
-0.00012938 0.000123042 0.0
-0.000205552 0.000184845 0.0
0 0 0.0
0.0502483 0.000187559 0.0
0.131322 0.00162617 0.0
0.158728 0.00215989 0.0
0.0956176 0.000783598 0.0
0.233694 -0.00412388 0.0
0.235398 -0.00675984 0.0
0.235216 -0.00871442 0.0
0.214275 -0.000281893 0.0
0.225519 -0.00220039 0.0
0.197821 0.00104991 0.0
0.180033 0.00182466 0.0
0.22946 -0.0114353 0.0
0.224195 -0.0123456 0.0
0.216786 -0.012849 0.0
0 0 0.0
-0.00010122 0.000107648 0.0
0 0 0.0
0 0 0.0
-0.00187317 0.00862341 0.0
-0.00199286 0.00619895 0.0
0.207308 -0.0129199 0.0
0.195853 -0.0123732 0.0
0.117918 -0.00470845 0.0
0.0671369 -0.00150042 0.0
0.152893 -0.00809098 0.0
0.177739 -0.0110338 0.0
0 0 0.0
-0.000942101 0.00174738 0.0
-0.0015096 0.00369179 0.0
-0.000797385 0.000942226 0.0
-0.000983031 0.000736428 0.0
0 0 0.0
0.0506007 0.000132809 0.0
0.132084 0.00135127 0.0
0.159028 0.00187194 0.0
0.0963148 0.000595443 0.0
0.23158 -0.0046315 0.0
0.233199 -0.0075164 0.0
0.233269 -0.00965699 0.0
0.211853 -0.000609729 0.0
0.223867 -0.0024778 0.0
0.196577 0.00073972 0.0
0.159402 0.00141815 0.0
0.179639 0.00141733 0.0
0.228142 -0.0123585 0.0
0.221217 -0.0135207 0.0
0.210611 -0.0140964 0.0
0 0 0.0
-0.000874115 0.000332332 0.0
0 0 0.0
0 0 0.0
0 0 0.0
0 0 0.0
-0.00381166 0.00649934 0.0
-0.000453734 0.00694663 0.0
-0.00178997 0.0105953 0.0
-0.00430913 0.0135873 0.0
-0.00393159 0.00992902 0.0
0 0 0.0
3.29525e-05 0.00867497 0.0
0.197147 -0.0139374 0.0
0.179597 -0.0119204 0.0
0 0 0.0
0.0701128 -0.00174973 0.0
0.121603 -0.00525 0.0
0.156736 -0.00912916 0.0
0 0 0.0
0 0 0.0
-0.0026294 0.00360227 0.0
-0.00236474 0.00218142 0.0
-0.00254031 0.0013848 0.0
0 0 0.0
0.0508233 5.78807e-05 0.0
0.132871 0.000902935 0.0