# vtk DataFile Version 3.0
Mesh NS-CD Problem
ASCII
DATASET UNSTRUCTURED_GRID
POINTS 10839 float
-2 0.3 0.0
-2 0.4 0.0
-2 0.35 0.0
-2 0.45 0.0
-2 0.5 0.0
-2 0.55 0.0
-2 0 0.0
-2 0.05 0.0
-2 0.85 0.0
-2 0.9 0.0
-2 0.1 0.0
-2 0.15 0.0
-2 0.25 0.0
-2 0.2 0.0
-1.96653 0.266667 0.0
-1.96524 0.415385 0.0
-1.96485 0.315 0.0
-1.96348 0.363636 0.0
-1.96414 0.464286 0.0
-2 0.6 0.0
-1.96538 0.584615 0.0
-1.96538 0.538462 0.0
-1.94979 0 0.0
-1.96653 0.0666666 0.0
-1.93306 0.0333333 0.0
-2 0.8 0.0
-2 0.75 0.0
-2 0.7 0.0
-2 0.65 0.0
-1.96249 0.7375 0.0
-1.96666 0.833333 0.0
-2 1 0.0
-2 0.95 0.0
-1.96249 0.8875 0.0
-1.96666 0.933333 0.0
-1.96234 0.1125 0.0
-1.96653 0.166667 0.0
-1.93724 0.225 0.0
-1.92971 0.28 0.0
-1.93048 0.380769 0.0
-1.93048 0.423077 0.0
-1.89958 0.3375 0.0
-1.9292 0.484203 0.0
-1.92117 0.530907 0.0
-1.96363 0.636364 0.0
-1.93076 0.576923 0.0
-1.89958 0 0.0
-1.88703 0.0375 0.0
-1.90963 0.08 0.0
-1.86611 0.0666666 0.0
-1.93749 0.775 0.0
-1.93635 0.672727 0.0
-1.92999 0.72 0.0
-1.93332 0.866667 0.0
-1.92856 0.821429 0.0
-1.94999 1 0.0
-1.92499 0.9625 0.0
-1.92499 0.925 0.0
-1.89998 0.9 0.0
-1.89958 0.125 0.0
-1.92827 0.178571 0.0
-1.89958 0.233333 0.0
-1.89045 0.290909 0.0
-1.86096 0.311538 0.0
-1.89241 0.392857 0.0
-1.89334 0.448489 0.0
-1.85655 0.357143 0.0
-1.89614 0.653846 0.0
-1.89427 0.504121 0.0
-1.8952 0.559753 0.0
-1.89614 0.615385 0.0
-1.84937 0 0.0
-1.83264 0.0333333 0.0
-1.85655 0.107143 0.0
-1.81172 0.075 0.0
-1.89998 0.766667 0.0
-1.89089 0.709091 0.0
-1.87498 0.85 0.0
-1.85998 0.79 0.0
-1.88748 0.8125 0.0
-1.89998 1 0.0
-1.88748 0.9625 0.0
-1.86664 0.933333 0.0
-1.85712 0.892857 0.0
-1.87448 0.15 0.0
-1.86611 0.194444 0.0
-1.83264 0.133333 0.0
-1.83264 0.2625 0.0
-1.82068 0.321429 0.0
-1.85664 0.404762 0.0
-1.85674 0.452381 0.0
-1.85683 0.5 0.0
-1.81184 0.375 0.0
-1.85712 0.642857 0.0
-1.85693 0.547619 0.0
-1.85702 0.595238 0.0
-1.79917 0 0.0
-1.78482 0.0357143 0.0
-1.79917 0.116667 0.0
-1.76569 0.0666666 0.0
-1.85452 0.745455 0.0
-1.82689 0.692308 0.0
-1.81815 0.781818 0.0
-1.82497 0.825 0.0
-1.84997 1 0.0
-1.8333 0.958333 0.0
-1.81247 0.8875 0.0
-1.81247 0.925 0.0
-1.81742 0.218182 0.0
-1.82427 0.175 0.0
-1.77634 0.145455 0.0
-1.79144 0.242308 0.0
-1.78482 0.285714 0.0
-1.77469 0.332653 0.0
-1.81215 0.529762 0.0
-1.81194 0.422619 0.0
-1.81203 0.470238 0.0
-1.76714 0.392857 0.0
-1.81234 0.625 0.0
-1.79732 0.571429 0.0
-1.74896 0 0.0
-1.73222 0.0333333 0.0
-1.75398 0.105 0.0
-1.71883 0.07 0.0
-1.79227 0.730769 0.0
-1.78007 0.679121 0.0
-1.75765 0.769231 0.0
-1.78178 0.818182 0.0
-1.78996 0.86 0.0
-1.79996 1 0.0
-1.78568 0.964286 0.0
-1.76663 0.922222 0.0
-1.76569 0.1875 0.0
-1.73222 0.15 0.0
-1.74896 0.25 0.0
-1.73714 0.304762 0.0
-1.76743 0.537202 0.0
-1.72869 0.343878 0.0
-1.76732 0.485119 0.0
-1.76723 0.440476 0.0
-1.72243 0.410714 0.0
-1.76757 0.607143 0.0
-1.69875 0 0.0
-1.68369 0.035 0.0
-1.69875 0.1125 0.0
-1.66528 0.075 0.0
-1.74341 0.708974 0.0
-1.73324 0.665934 0.0
-1.70441 0.74478 0.0
-1.71423 0.785714 0.0
-1.72303 0.826923 0.0
-1.74541 0.854545 0.0
-1.74541 0.890909 0.0
-1.74996 1 0.0
-1.73745 0.9625 0.0
-1.71359 0.927273 0.0
-1.68716 0.153846 0.0
-1.7131 0.214286 0.0
-1.70725 0.275 0.0
-1.69712 0.321939 0.0
-1.72279 0.589286 0.0
-1.72261 0.5 0.0
-1.7227 0.544643 0.0
-1.6827 0.355102 0.0
-1.67773 0.428571 0.0
-1.70763 0.464286 0.0
-1.70369 0.62449 0.0
-1.64854 0 0.0
-1.63181 0.0375 0.0
-1.64137 0.142857 0.0
-1.61764 0.0769231 0.0
-1.69458 0.703846 0.0
-1.67471 0.657437 0.0
-1.66143 0.727637 0.0
-1.67125 0.768571 0.0
-1.67851 0.821429 0.0
-1.68841 0.861538 0.0
-1.70904 0.890909 0.0
-1.69995 1 0.0
-1.68176 0.963636 0.0
-1.67267 0.927273 0.0
-1.65427 0.187143 0.0
-1.66718 0.231429 0.0
-1.66554 0.3 0.0
-1.67802 0.571429 0.0
-1.67792 0.523809 0.0
-1.6367 0.366327 0.0
-1.63682 0.423469 0.0
-1.62568 0.502976 0.0
-1.6629 0.470238 0.0
-1.65254 0.618367 0.0
-1.6059 0.307143 0.0
-1.59833 0 0.0
-1.58288 0.0384615 0.0
-1.60563 0.169643 0.0
-1.58179 0.112271 0.0
-1.56964 0.0714286 0.0
-1.64574 0.690385 0.0
-1.62827 0.751429 0.0
-1.63371 0.791071 0.0
-1.64279 0.857143 0.0
-1.65378 0.896154 0.0
-1.64994 1 0.0
-1.6363 0.963636 0.0
-1.61916 0.930769 0.0
-1.61345 0.209107 0.0
-1.62126 0.248571 0.0
-1.56989 0.196429 0.0
-1.63324 0.553571 0.0
-1.58846 0.535714 0.0
-1.59408 0.361905 0.0
-1.59161 0.402211 0.0
-1.58832 0.464286 0.0
-1.61504 0.598581 0.0
-1.59683 0.64359 0.0
-1.57899 0.274107 0.0
-1.56176 0.322381 0.0
-1.54812 0 0.0
-1.53378 0.0357143 0.0
-1.54593 0.147619 0.0
-1.53385 0.0732143 0.0
-1.53393 0.110714 0.0
-1.58522 0.704286 0.0
-1.58709 0.745 0.0
-1.58896 0.785714 0.0
-1.60695 0.830357 0.0
-1.60707 0.892857 0.0
-1.59993 1 0.0
-1.58454 0.965385 0.0
-1.57135 0.928571 0.0
-1.55209 0.241071 0.0
-1.5291 0.198214 0.0
-1.56936 0.570918 0.0
-1.54369 0.517857 0.0
-1.5464 0.380952 0.0
-1.54564 0.427721 0.0
-1.54488 0.47449 0.0
-1.55026 0.606122 0.0
-1.54222 0.677143 0.0
-1.52943 0.282857 0.0
-1.52143 0.33619 0.0
-1.49792 0 0.0
-1.49802 0.05 0.0
-1.49822 0.15 0.0
-1.49312 0.1 0.0
-1.5423 0.717143 0.0
-1.54419 0.767857 0.0
-1.54727 0.819048 0.0
-1.57122 0.861905 0.0
-1.53553 0.914286 0.0
-1.54992 1 0.0
-1.53563 0.964286 0.0
-1.49842 0.25 0.0
-1.48831 0.2 0.0
-1.5214 0.558929 0.0
-1.49891 0.5 0.0
-1.49871 0.4 0.0
-1.47631 0.45 0.0
-1.49911 0.6 0.0
-1.49921 0.65 0.0
-1.49931 0.7 0.0
-1.48111 0.35 0.0
-1.48351 0.3 0.0
-1.44771 0 0.0
-1.44782 0.05 0.0
-1.44804 0.15 0.0
-1.44793 0.1 0.0
-1.49941 0.75 0.0
-1.49951 0.8 0.0
-1.49981 0.95 0.0
-1.49961 0.85 0.0
-1.49971 0.9 0.0
-1.49991 1 0.0
-1.44826 0.25 0.0
-1.43815 0.2 0.0
-1.47151 0.55 0.0
-1.44881 0.5 0.0
-1.44859 0.4 0.0
-1.42619 0.45 0.0
-1.44913 0.65 0.0
-1.44902 0.6 0.0
-1.44935 0.75 0.0
-1.44924 0.7 0.0
-1.43972 0.35 0.0
-1.43336 0.3 0.0
-1.3975 0 0.0
-1.39762 0.05 0.0
-1.39786 0.15 0.0
-1.39274 0.1 0.0
-1.44957 0.85 0.0
-1.44946 0.8 0.0
-1.4523 0.95 0.0
-1.44968 0.9 0.0
-1.4499 1 0.0
-1.3981 0.25 0.0
-1.38798 0.2 0.0
-1.42141 0.55 0.0
-1.3987 0.5 0.0
-1.39834 0.35 0.0
-1.37845 0.4 0.0
-1.37607 0.45 0.0
-1.40784 0.65 0.0
-1.39894 0.6 0.0
-1.41185 0.75 0.0
-1.39918 0.7 0.0
-1.38322 0.3 0.0
-1.34729 0 0.0
-1.34492 0.05 0.0
-1.34018 0.15 0.0
-1.34255 0.1 0.0
-1.40707 0.85 0.0
-1.39941 0.8 0.0
-1.39977 0.95 0.0
-1.39965 0.9 0.0
-1.39989 1 0.0
-1.33781 0.2 0.0
-1.33544 0.25 0.0
-1.37131 0.55 0.0
-1.34859 0.5 0.0
-1.33833 0.4 0.0
-1.3307 0.35 0.0
-1.32595 0.45 0.0
-1.34885 0.6 0.0
-1.36655 0.65 0.0
-1.36179 0.75 0.0
-1.34911 0.7 0.0
-1.33307 0.3 0.0
-1.29708 0 0.0
-1.29722 0.05 0.0
-1.2975 0.15 0.0
-1.29236 0.1 0.0
-1.35703 0.85 0.0
-1.34937 0.8 0.0
-1.34988 1 0.0
-1.34962 0.9 0.0
-1.35226 0.95 0.0
-1.28528 0.25 0.0
-1.28764 0.2 0.0
-1.28931 0.35 0.0
-1.32121 0.55 0.0
-1.29848 0.5 0.0
-1.28709 0.45 0.0
-1.2982 0.4 0.0
-1.29876 0.6 0.0
-1.31647 0.65 0.0
-1.29918 0.75 0.0
-1.29904 0.7 0.0
-1.28292 0.3 0.0
-1.24687 0 0.0
-1.24702 0.05 0.0
-1.24717 0.1 0.0
-1.24732 0.15 0.0
-1.29946 0.85 0.0
-1.29932 0.8 0.0
-1.29987 1 0.0
-1.29974 0.95 0.0
-1.30462 0.9 0.0
-1.24762 0.25 0.0
-1.23747 0.2 0.0
-1.24792 0.35 0.0
-1.22807 0.4 0.0
-1.27111 0.55 0.0
-1.24837 0.5 0.0
-1.24822 0.45 0.0
-1.24867 0.6 0.0
-1.26639 0.65 0.0
-1.26167 0.75 0.0
-1.24897 0.7 0.0
-1.23277 0.3 0.0
-1.19667 0 0.0
-1.19683 0.05 0.0
-1.18964 0.15 0.0
-1.19198 0.1 0.0
-1.25695 0.85 0.0
-1.24927 0.8 0.0
-1.25223 0.95 0.0
-1.24987 1 0.0
-1.24957 0.9 0.0
-1.1873 0.2 0.0
-1.18496 0.25 0.0
-1.18028 0.35 0.0
-1.17794 0.4 0.0
-1.1981 0.45 0.0
-1.19842 0.55 0.0
-1.19826 0.5 0.0
-1.19858 0.6 0.0
-1.19874 0.65 0.0
-1.19906 0.75 0.0
-1.1989 0.7 0.0
-1.18262 0.3 0.0
-1.14646 0 0.0
-1.14663 0.05 0.0
-1.1418 0.1 0.0
-1.13713 0.2 0.0
-1.14697 0.15 0.0
-1.20691 0.85 0.0
-1.20926 0.8 0.0
-1.20221 0.95 0.0
-1.19986 1 0.0
-1.20456 0.9 0.0
-1.13997 0.3 0.0
-1.14731 0.25 0.0
-1.13781 0.4 0.0
-1.13014 0.35 0.0
-1.12548 0.45 0.0
-1.14815 0.5 0.0
-1.15962 0.55 0.0
-1.14849 0.6 0.0
-1.15745 0.65 0.0
-1.16155 0.75 0.0
-1.14917 0.8 0.0
-1.14883 0.7 0.0
-1.09625 0 0.0
-1.09661 0.1 0.0
-1.09393 0.05 0.0
-1.09697 0.2 0.0
-1.08929 0.15 0.0
-1.15687 0.85 0.0
-1.14985 1 0.0
-1.15219 0.95 0.0
-1.14951 0.9 0.0
-1.09733 0.3 0.0
-1.08465 0.25 0.0
-1.09769 0.4 0.0
-1.08 0.35 0.0
-1.08661 0.45 0.0
-1.09804 0.5 0.0
-1.12082 0.55 0.0
-1.10916 0.8 0.0
-1.10629 0.7 0.0
-1.0984 0.6 0.0
-1.11616 0.65 0.0
-1.11149 0.75 0.0
-1.04604 0 0.0
-1.04623 0.05 0.0
-1.04642 0.1 0.0
-1.0468 0.2 0.0
-1.03911 0.15 0.0
-1.09948 0.9 0.0
-1.0993 0.85 0.0
-1.09984 1 0.0
-1.09966 0.95 0.0
-1.04718 0.3 0.0
-1.03449 0.25 0.0
-1.04756 0.4 0.0
-1.02986 0.35 0.0
-1.04775 0.45 0.0
-1.04794 0.5 0.0
-1.04813 0.55 0.0
-1.05911 0.8 0.0
-1.04831 0.6 0.0
-1.06376 0.7 0.0
-1.0485 0.65 0.0
-1.04888 0.75 0.0
-0.995833 0 0.0
-0.991231 0.1 0.0
-0.996033 0.05 0.0
-0.986629 0.2 0.0
-0.98893 0.15 0.0
-1.05447 0.9 0.0
-1.04926 0.85 0.0
-1.04983 1 0.0
-1.04964 0.95 0.0
-0.984328 0.25 0.0
-0.99703 0.3 0.0
-0.997429 0.4 0.0
-0.997628 0.45 0.0
-0.979726 0.35 0.0
-0.997827 0.5 0.0
-0.998027 0.55 0.0
-0.998226 0.6 0.0
-0.961416 0.475 0.0
-1.00907 0.8 0.0
-0.998426 0.65 0.0
-0.998625 0.7 0.0
-1.01138 0.75 0.0
-0.945625 0 0.0
-0.946044 0.1 0.0
-0.943334 0.05 0.0
-0.946463 0.2 0.0
-0.938752 0.15 0.0
-1.00444 0.9 0.0
-1.00675 0.85 0.0
-0.999821 1 0.0
-1.00213 0.95 0.0
-0.93417 0.25 0.0
-0.946881 0.3 0.0
-0.9473 0.4 0.0
-0.929588 0.35 0.0
-0.925005 0.45 0.0
-0.960371 0.525 0.0
-0.959325 0.575 0.0
-0.958279 0.625 0.0
-0.922714 0.5 0.0
-0.959017 0.8 0.0
-0.957233 0.675 0.0
-0.952999 0.7125 0.0
-0.948766 0.75 0.0
-0.895417 0 0.0
-0.895855 0.1 0.0
-0.893136 0.05 0.0
-0.896294 0.2 0.0
-0.888573 0.15 0.0
-0.949184 0.85 0.0
-0.954415 0.9 0.0
-0.949812 1 0.0
-0.949603 0.95 0.0
-0.884011 0.25 0.0
-0.896733 0.3 0.0
-0.874887 0.45 0.0
-0.879449 0.35 0.0
-0.897171 0.4 0.0
-0.920423 0.55 0.0
-0.918132 0.6 0.0
-0.915841 0.65 0.0
-0.872606 0.5 0.0
-0.908968 0.8 0.0
-0.91355 0.7 0.0
-0.898707 0.75 0.0
-0.845208 0 0.0
-0.845438 0.05 0.0
-0.845667 0.1 0.0
-0.845896 0.15 0.0
-0.833853 0.25 0.0
-0.846126 0.2 0.0
-0.899146 0.85 0.0
-0.904386 0.9 0.0
-0.899584 0.95 0.0
-0.899804 1 0.0
-0.838062 0.35 0.0
[...]
POINT_DATA 10839
VECTORS Velocity float
0.21 0 0.0
0.24 0 0.0
0.2275 0 0.0
0.2475 0 0.0
0.25 0 0.0
0.2475 0 0.0
0 0 0.0
0.0475 0 0.0
0.1275 0 0.0
0.09 0 0.0
0.09 0 0.0
0.1275 0 0.0
0.1875 0 0.0
0.16 0 0.0
0.195557 -2.4267e-05 0.0
0.242841 -3.31149e-05 0.0
0.215776 -2.88888e-05 0.0
0.231406 -3.25705e-05 0.0
0.248725 -3.52594e-05 0.0
0.24 0 0.0
0.24284 -3.30405e-05 0.0
0.24852 -3.39557e-05 0.0
0 0 0.0
0.0622239 -4.2232e-06 0.0
0.032227 -2.79153e-06 0.0
0.16 0 0.0
0.1875 0 0.0
0.21 0 0.0
0.2275 0 0.0
0.193592 -2.72393e-05 0.0
0.138887 -1.51164e-05 0.0
0 0 0.0
0.0475 0 0.0
0.0998415 -1.04956e-05 0.0
0.0622205 -4.27051e-06 0.0
0.0998462 -1.09673e-05 0.0
0.138891 -1.52516e-05 0.0
0.17438 -3.82497e-05 0.0
0.201606 -5.24108e-05 0.0
0.235787 -6.40077e-05 0.0
0.244085 -6.69797e-05 0.0
0.223602 -8.58203e-05 0.0
0.249751 -6.99828e-05 0.0
0.249044 -7.79873e-05 0.0
0.231404 -3.30996e-05 0.0
0.244081 -6.6186e-05 0.0
0 0 0.0
0.0361082 -5.4055e-06 0.0
0.0736128 -1.51161e-05 0.0
0.0622494 -1.6572e-05 0.0
0.17437 -3.76856e-05 0.0
0.220162 -5.23943e-05 0.0
0.201594 -5.24881e-05 0.0
0.115548 -2.25839e-05 0.0
0.146676 -3.50089e-05 0.0
0 0 0.0
0.0360874 -3.63904e-06 0.0
0.069366 -1.18132e-05 0.0
0.0899833 -2.34633e-05 0.0
0.109391 -3.17506e-05 0.0
0.146692 -3.43331e-05 0.0
0.178902 -6.41723e-05 0.0
0.206293 -8.39405e-05 0.0
0.214501 -0.000113167 0.0
0.238527 -0.000100375 0.0
0.24735 -0.000104529 0.0
0.229607 -0.000127806 0.0
0.226323 -9.01791e-05 0.0
0.249983 -0.000105047 0.0
0.246426 -0.000102195 0.0
0.23668 -9.62103e-05 0.0
0 0 0.0
0.0322508 -6.11561e-06 0.0
0.0956969 -3.60775e-05 0.0
0.0694298 -2.71968e-05 0.0
0.178876 -6.31937e-05 0.0
0.206269 -8.45742e-05 0.0
0.127476 -4.87106e-05 0.0
0.165873 -8.0007e-05 0.0
0.152325 -5.72613e-05 0.0
0 0 0.0
0.0360795 -5.23534e-06 0.0
0.0621955 -1.63954e-05 0.0
0.0956296 -3.6757e-05 0.0
0.127525 -4.91827e-05 0.0
0.156661 -7.14847e-05 0.0
0.115601 -5.64975e-05 0.0
0.193627 -0.000118005 0.0
0.218142 -0.000149385 0.0
0.24094 -0.00013619 0.0
0.247737 -0.00014125 0.0
0.25 -0.000142795 0.0
0.234398 -0.000172983 0.0
0.229576 -0.00012604 0.0
0.247727 -0.00014094 0.0
0.240919 -0.000135951 0.0
0 0 0.0
0.0344876 -8.47795e-06 0.0
0.103122 -5.5536e-05 0.0
0.0623038 -2.75645e-05 0.0
0.189727 -0.000100246 0.0
0.212988 -0.000140121 0.0
0.170533 -0.000108598 0.0
0.144329 -8.05715e-05 0.0
0 0 0.0
0.0398978 -9.02376e-06 0.0
0.0997857 -5.0463e-05 0.0
0.0693207 -2.67479e-05 0.0
0.170625 -0.000108725 0.0
0.144422 -8.23142e-05 0.0
0.124378 -8.35185e-05 0.0
0.18365 -0.000137523 0.0
0.204132 -0.000164703 0.0
0.222039 -0.000193984 0.0
0.249109 -0.000187588 0.0
0.244027 -0.000182579 0.0
0.24912 -0.000187595 0.0
0.238551 -0.000220385 0.0
0.234352 -0.000171969 0.0
0.244882 -0.000197784 0.0
0 0 0.0
0.0322924 -8.9858e-06 0.0
0.0940751 -5.84159e-05 0.0
0.0652184 -3.49078e-05 0.0
0.196695 -0.000150404 0.0
0.217871 -0.000184864 0.0
0.177437 -0.000152714 0.0
0.148689 -0.000106477 0.0
0.120328 -7.44974e-05 0.0
0 0 0.0
0.0343905 -8.55951e-06 0.0
0.0716435 -3.50034e-05 0.0
0.152425 -0.000119464 0.0
0.127616 -0.000103805 0.0
0.187579 -0.000170687 0.0
0.211952 -0.000212694 0.0
0.248605 -0.00023302 0.0
0.225686 -0.000241033 0.0
0.249783 -0.00023471 0.0
0.246474 -0.000230748 0.0
0.242065 -0.000270203 0.0
0.23849 -0.00021977 0.0
0 0 0.0
0.033875 -1.12741e-05 0.0
0.0999945 -7.81256e-05 0.0
0.0695466 -4.65311e-05 0.0
0.20626 -0.000199113 0.0
0.222404 -0.000232176 0.0
0.189974 -0.000207007 0.0
0.168252 -0.000167118 0.0
0.143002 -0.000128131 0.0
0.124193 -9.44806e-05 0.0
0.097083 -6.34266e-05 0.0
0 0 0.0
0.0360204 -1.09131e-05 0.0
0.0673138 -3.75409e-05 0.0
0.130336 -0.000125564 0.0
0.168484 -0.000167925 0.0
0.199474 -0.000219153 0.0
0.218379 -0.000257277 0.0
0.241992 -0.000270874 0.0
0.25 -0.000282763 0.0
0.247988 -0.000279464 0.0
0.229082 -0.000290387 0.0
0.244938 -0.000321981 0.0
0.248741 -0.000296778 0.0
0.234444 -0.000277599 0.0
0 0 0.0
0.0362336 -1.455e-05 0.0
0.122661 -0.000128732 0.0
0.0712313 -5.50903e-05 0.0
0.208348 -0.000243731 0.0
0.225125 -0.000290199 0.0
0.198046 -0.000253164 0.0
0.177724 -0.000209572 0.0
0.146524 -0.000154464 0.0
0.11913 -0.000107842 0.0
0.0970498 -7.20012e-05 0.0
0 0 0.0
0.034938 -1.22277e-05 0.0
0.0672762 -4.22985e-05 0.0
0.152303 -0.00017568 0.0
0.178019 -0.00021452 0.0
0.210117 -0.00027146 0.0
0.244858 -0.000321909 0.0
0.24942 -0.000330701 0.0
0.232227 -0.000341827 0.0
0.244198 -0.000366517 0.0
0.249988 -0.000391282 0.0
0.249132 -0.000347532 0.0
0.235912 -0.000332709 0.0
0.212965 -0.000331759 0.0
0 0 0.0
0.0371628 -1.71552e-05 0.0
0.141113 -0.000179327 0.0
0.0999608 -0.000108383 0.0
0.0666024 -5.37151e-05 0.0
0.213627 -0.00029678 0.0
0.186605 -0.000258382 0.0
0.165082 -0.000210219 0.0
0.122238 -0.000129436 0.0
0.0928639 -7.90361e-05 0.0
0 0 0.0
0.0349081 -1.36622e-05 0.0
0.0642245 -4.49466e-05 0.0
0.1656 -0.000224756 0.0
0.18697 -0.000264163 0.0
0.158127 -0.000235263 0.0
0.247091 -0.000376432 0.0
0.248691 -0.000432882 0.0
0.231053 -0.000384027 0.0
0.240527 -0.000409864 0.0
0.248758 -0.000432505 0.0
0.240202 -0.000382959 0.0
0.229255 -0.000376338 0.0
0.199184 -0.000324852 0.0
0.218636 -0.000388357 0.0
0 0 0.0
0.0346507 -1.68388e-05 0.0
0.126174 -0.000174369 0.0
0.0681815 -6.07295e-05 0.0
0.0988238 -0.000118087 0.0
0.20808 -0.000339706 0.0
0.189757 -0.00029615 0.0
0.168123 -0.000245781 0.0
0.140616 -0.000177982 0.0
0.095406 -9.40871e-05 0.0
0 0 0.0
0.0332519 -1.39901e-05 0.0
0.0660532 -5.35477e-05 0.0
0.183227 -0.000307006 0.0
0.159267 -0.000263393 0.0
0.244897 -0.000446387 0.0
0.24966 -0.000490097 0.0
0.235963 -0.00044956 0.0
0.244859 -0.000475189 0.0
0.249378 -0.000488882 0.0
0.238619 -0.000452059 0.0
0.218418 -0.000408613 0.0
0.203108 -0.000379158 0.0
0.223373 -0.000444144 0.0
0 0 0.0
0.0478088 -3.36383e-05 0.0
0.127926 -0.000198886 0.0
0.0904289 -0.000110894 0.0
0.202605 -0.00036529 0.0
0.177963 -0.000300426 0.0
0.147883 -0.000225427 0.0
0.118716 -0.000147752 0.0
0.0780232 -7.89976e-05 0.0
0 0 0.0
0.0342297 -1.64909e-05 0.0
0.187836 -0.000363619 0.0
0.160406 -0.000293155 0.0
0.246451 -0.000510242 0.0
0.25 -0.000549807 0.0
0.240141 -0.000519148 0.0
0.247578 -0.000572395 0.0
0.239858 -0.000518785 0.0
0.227289 -0.00048036 0.0
0.209725 -0.00042737 0.0
0.227727 -0.000504132 0.0
0.210294 -0.000445272 0.0
0 0 0.0
0.0478729 -3.75258e-05 0.0
0.128022 -0.000222093 0.0
0.0905121 -0.000121955 0.0
0.187165 -0.000361782 0.0
0.159613 -0.000283584 0.0
0.0471952 -3.29774e-05 0.0
0.127078 -0.000196176 0.0
0.0895841 -0.00010856 0.0
0 0 0.0
0.187913 -0.000408711 0.0
0.160498 -0.000328181 0.0
0.247419 -0.000578968 0.0
0.249999 -0.000619564 0.0
0.240174 -0.000585372 0.0
0.247595 -0.000643578 0.0
0.227242 -0.00054096 0.0
0.239825 -0.000584292 0.0
0.187088 -0.000406523 0.0
0.209662 -0.000480951 0.0
0.227768 -0.000553497 0.0
0.21036 -0.00050059 0.0
0 0 0.0
0.0479435 -4.11524e-05 0.0
0.12813 -0.000246989 0.0
0.090625 -0.000136793 0.0
0.126981 -0.000219893 0.0
0.159525 -0.000318266 0.0
0.0471353 -3.65729e-05 0.0
0.0894931 -0.000120681 0.0
0 0 0.0
0.188001 -0.000456503 0.0
0.160601 -0.000365906 0.0
0.247401 -0.000649927 0.0
0.249999 -0.000694206 0.0
0.227813 -0.000607225 0.0
0.240226 -0.000684718 0.0
0.247614 -0.000720375 0.0
0.227196 -0.000592335 0.0
0.239788 -0.000654629 0.0
0.187024 -0.000440931 0.0
0.20959 -0.000538148 0.0
0.210434 -0.000559662 0.0
0 0 0.0
0.0480264 -4.57688e-05 0.0
0.128269 -0.000277881 0.0
0.09074 -0.000151124 0.0
0.126892 -0.000240223 0.0
0.159424 -0.000354453 0.0
0.0470625 -4.06237e-05 0.0
0.0893924 -0.000133238 0.0
0 0 0.0
0.160715 -0.000405965 0.0
0.188125 -0.000520538 0.0
0.247381 -0.000726005 0.0
0.249998 -0.000774353 0.0
0.240261 -0.00074779 0.0
0.227898 -0.00070242 0.0
0.247636 -0.000801842 0.0
0.239745 -0.000729588 0.0
0.227147 -0.000648409 0.0
0.186929 -0.000490532 0.0
0.209509 -0.000598961 0.0
0.210517 -0.000623564 0.0
0 0 0.0
0.0481099 -5.05124e-05 0.0
0.128385 -0.000303053 0.0
0.090867 -0.000166776 0.0
0.126775 -0.000265863 0.0
0.159313 -0.000393562 0.0
0 0 0.0
0.0892799 -0.000147364 0.0
0.0469891 -4.46359e-05 0.0
0.188237 -0.00057909 0.0
0.160844 -0.000450056 0.0
0.227957 -0.000765991 0.0
0.247358 -0.000808534 0.0
0.249998 -0.00086123 0.0
0.247655 -0.000870608 0.0
0.240299 -0.000813766 0.0
0.239699 -0.000810864 0.0
0.22708 -0.000721076 0.0
0.186794 -0.000557457 0.0
0.209419 -0.000665502 0.0
0.21061 -0.000691876 0.0
0 0 0.0
0.0482048 -5.57073e-05 0.0
0.0909929 -0.000181786 0.0
0.128533 -0.000334406 0.0
0.126624 -0.000297807 0.0
0.159188 -0.000435596 0.0
0 0 0.0
0.0469011 -4.9084e-05 0.0
0.0891696 -0.000160373 0.0
0.188331 -0.000624694 0.0
0.160987 -0.000498035 0.0
0.228019 -0.000834299 0.0
0.240372 -0.00094032 0.0
0.247333 -0.000898084 0.0
0.249997 -0.0009549 0.0
0.247675 -0.000943019 0.0
0.239646 -0.000898875 0.0
0.227006 -0.000799961 0.0
0.186704 -0.000601732 0.0
0.209318 -0.000736445 0.0
0.210715 -0.000766834 0.0
0 0 0.0
0.0483106 -6.1194e-05 0.0
0.128724 -0.000375396 0.0
0.0911631 -0.000203142 0.0
0.126499 -0.000323694 0.0
0.159049 -0.000481117 0.0
0.0468133 -5.32955e-05 0.0
0 0 0.0
0.0890211 -0.000177932 0.0
0.161146 -0.000550366 0.0
0.188502 -0.000707399 0.0
0.228138 -0.000956393 0.0
0.240432 -0.00104258 0.0
0.247703 -0.00104504 0.0
0.24729 -0.00103916 0.0
0.249996 -0.00105866 0.0
0.239587 -0.000996748 0.0
0.226892 -0.000915272 0.0
0.186538 -0.000680621 0.0
0.209206 -0.000815003 0.0
0.21083 -0.000848009 0.0
0 0 0.0
0.0484259 -6.71651e-05 0.0
0.0913338 -0.000222905 0.0
0.161321 -0.000605927 0.0
0.128881 -0.000407212 0.0
0.12634 -0.000356359 0.0
0.158927 -0.00052032 0.0
0.0467111 -5.8829e-05 0.0
0 0 0.0
0.0888853 -0.000193994 0.0
0.210937 -0.000923392 0.0
0.188619 -0.000763712 0.0
0.240484 -0.001129 0.0
0.228235 -0.00106007 0.0
0.24775 -0.00120665 0.0
0.249995 -0.00117029 0.0
0.247264 -0.00112331 0.0
0.239522 -0.00110136 0.0
0.226813 -0.000993483 0.0
0.186425 -0.000732756 0.0
0.158725 -0.000585063 0.0
0.209081 -0.000899137 0.0
0 0 0.0
0.0915049 -0.000243806 0.0
0.0485617 -7.47261e-05 0.0
0.161475 -0.000656977 0.0
0.129113 -0.000457124 0.0
0.126163 -0.000392512 0.0
0 0 0.0
0.0465992 -6.46048e-05 0.0
0.0887043 -0.000215219 0.0
0.211056 -0.0010035 0.0
0.188828 -0.000866106 0.0
0.240541 -0.0012221 0.0
0.228344 -0.00117229 0.0
0.247776 -0.00130623 0.0
0.249992 -0.00129361 0.0
0.247236 -0.00121587 0.0
0.158575 -0.000629834 0.0
0.208965 -0.00097676 0.0
0.239448 -0.0012147 0.0
0.226727 -0.00107868 0.0
0.186264 -0.000808328 0.0
0 0 0.0
0.0486954 -8.15465e-05 0.0
0.0917094 -0.000268058 0.0
0.161687 -0.000724042 0.0
0.12934 -0.000504347 0.0
0.0885212 -0.000235833 0.0
0.125937 -0.000437982 0.0
0 0 0.0
0.0464706 -7.13741e-05 0.0
0.211208 -0.00110817 0.0
0.18902 -0.000957131 0.0
0.240619 -0.00134982 0.0
0.228464 -0.00129591 0.0
0.247807 -0.00141279 0.0
0.249992 -0.00142981 0.0
0.247176 -0.00140035 0.0
0.158373 -0.000692905 0.0
0.239368 -0.00134124 0.0
0.208839 -0.00105829 0.0
0.226572 -0.00123232 0.0
0.186037 -0.00091502 0.0
0 0 0.0
0.0919607 -0.000298296 0.0
0.0488499 -8.9669e-05 0.0
0.161968 -0.000813977 0.0
0.12959 -0.000556276 0.0
0.0883417 -0.000256931 0.0
0.125719 -0.000482936 0.0
0 0 0.0
0.0463343 -7.85927e-05 0.0
0.18923 -0.00105853 0.0
0.211377 -0.00122472 0.0
0.240705 -0.00149275 0.0
0.247849 -0.00155767 0.0
0.228597 -0.00143154 0.0
0.249988 -0.00157585 0.0
0.247131 -0.00154841 0.0
0.239279 -0.00147714 0.0
0.249558 -0.00169045 0.0
0.158147 -0.00076222 0.0
0.22644 -0.00135937 0.0
0.208622 -0.00120001 0.0
0.185886 -0.000983599 0.0
0 0 0.0
0.0921908 -0.000325986 0.0
0.0490313 -9.97859e-05 0.0
0.162179 -0.000882135 0.0
0.129866 -0.000613643 0.0
0.0881235 -0.000282505 0.0
0.125516 -0.000524149 0.0
0 0 0.0
0.0461933 -8.61839e-05 0.0
0.189463 -0.00116969 0.0
0.211564 -0.00135386 0.0
0.240795 -0.00164698 0.0
0.228744 -0.00158393 0.0
0.247914 -0.00179979 0.0
0.249161 -0.00168896 0.0
0.243768 -0.00163818 0.0
0.233385 -0.00153815 0.0
0.249981 -0.00182876 0.0
0.157901 -0.000838373 0.0
0.218017 -0.00139303 0.0
0.203211 -0.00126033 0.0
0.18561 -0.00110716 0.0
0 0 0.0
0.0924668 -0.000359299 0.0
0.0492192 -0.000109236 0.0
0.162464 -0.00097528 0.0
0.130172 -0.00067814 0.0
0.125216 -0.000585229 0.0
0.0878828 -0.000311292 0.0
0 0 0.0
0.0460227 -9.47127e-05 0.0
0.189722 -0.00129421 0.0
0.21177 -0.00149738 0.0
0.247961 -0.00198526 0.0
0.228905 -0.00175127 0.0
0.240901 -0.00182102 0.0
0.247046 -0.00180405 0.0
0.239114 -0.00172554 0.0
0.226193 -0.00159494 0.0
0.249971 -0.00201733 0.0
0.157628 -0.000923356 0.0
0.208294 -0.00141333 0.0
0.185362 -0.00121876 0.0
0 0 0.0
0.049417 -0.00011957 0.0
0.0927729 -0.000397389 0.0
0.130459 -0.000738262 0.0
0.190007 -0.001431 0.0
0.162783 -0.00107927 0.0
0.124925 -0.000644116 0.0
0.0876174 -0.000343311 0.0
0.0458408 -0.000104522 0.0
0 0 0.0
0.22905 -0.00190466 0.0
0.211999 -0.00165937 0.0
0.248004 -0.00214624 0.0
0.241012 -0.00201596 0.0
0.22602 -0.00175426 0.0
0.246979 -0.0019878 0.0
0.238991 -0.00189999 0.0
0.249963 -0.00222532 0.0
0.185093 -0.00133848 0.0
0.157269 -0.00103257 0.0
0.208001 -0.00159849 0.0
0 0 0.0
0.0496463 -0.000132687 0.0
0.0931493 -0.000444163 0.0
0.130828 -0.000816517 0.0
0.190241 -0.00154962 0.0
0.163209 -0.00122608 0.0
0.124608 -0.000707704 0.0
0.0872974 -0.000381864 0.0
0.0456425 -0.000114918 0.0
0 0 0.0
0.124257 -0.000779193 0.0
0.229206 -0.00206619 0.0
0.21233 -0.00190186 0.0
0.241184 -0.00232559 0.0
0.248047 -0.00231683 0.0
0.22576 -0.00199236 0.0
0.23886 -0.00208933 0.0
0.246907 -0.00219186 0.0
0.249945 -0.00245496 0.0
0.184796 -0.00146912 0.0
0.156934 -0.00113753 0.0
0.20775 -0.00175916 0.0
0 0 0.0
0.0498999 -0.000146715 0.0
0.0935318 -0.000493419 0.0
0.131241 -0.000907648 0.0
0.190586 -0.00171843 0.0
0.163613 -0.00136507 0.0
0.0454195 -0.000128086 0.0
0.086971 -0.000421857 0.0
0 0 0.0
0.123936 -0.000841752 0.0
0.229413 -0.0022947 0.0
0.212618 -0.00211405 0.0
0.24132 -0.00257498 0.0
0.248101 -0.00256386 0.0
0.225577 -0.00215475 0.0
0.238713 -0.0022968 0.0
0.249926 -0.00270996 0.0
0.246782 -0.00252227 0.0
0.184553 -0.00157153 0.0
0.156569 -0.00124791 0.0
0.207474 -0.00192825 0.0
0 0 0.0
0.0501792 -0.000162495 0.0
0.0939555 -0.000548465 0.0
0.13177 -0.00102668 0.0
0.191062 -0.00196383 0.0
0.212932 -0.00235553 0.0
0.164057 -0.00152501 0.0
0.0451908 -0.000140456 0.0
0.0866167 -0.000463793 0.0
0 0 0.0
0.123525 -0.000921922 0.0
0.229718 -0.00263836 0.0
0.241435 -0.00280066 0.0
0.248159 -0.0028371 0.0
0.249903 -0.00292112 0.0
0.225383 -0.00232375 0.0
0.238539 -0.00252809 0.0
0.246678 -0.00277736 0.0
0.156169 -0.00136689 0.0
0.184204 -0.00172049 0.0
0.207167 -0.00211098 0.0
0 0 0.0
0.0505126 -0.00018303 0.0
0.0944342 -0.000616314 0.0
0.132295 -0.00115333 0.0
0.191386 -0.00213754 0.0
0.213276 -0.00262332 0.0
0.164555 -0.00170827 0.0
0.0449248 -0.000154073 0.0
0.0862277 -0.000508706 0.0
0 0 0.0
0.155825 -0.00145968 0.0
0.0858057 -0.000553559 0.0
0.123007 -0.0010177 0.0
0.22997 -0.00294975 0.0
0.241553 -0.00303577 0.0
0.248237 -0.00328679 0.0
0.249879 -0.00314263 0.0
0.246588 -0.00299441 0.0
0.225122 -0.00254404 0.0
0.238272 -0.00288291 0.0
0.183718 -0.00191695 0.0
0.206882 -0.00228201 0.0
0.230195 -0.00321925 0.0
0 0 0.0
0.050868 -0.000206094 0.0
0.132882 -0.00130213 0.0
0.0949716 -0.000697429 0.0
0.213657 -0.00293838 0.0
0.191971 -0.00246344 0.0
0.165108 -0.00192081 0.0
0.0446209 -0.000168683 0.0
0 0 0.0
0.183396 -0.00204605 0.0
0.155357 -0.00158758 0.0
0.12251 -0.00110703 0.0
0.0442986 -0.000185769 0.0
0.0853436 -0.00060251 0.0
0.241714 -0.00337434 0.0
0.248277 -0.00356112 0.0
0.249828 -0.0034695 0.0
0.249783 -0.00374125 0.0
0.246481 -0.00322375 0.0
0.224823 -0.00278575 0.0
0.238035 -0.00316417 0.0
0.206569 -0.00245115 0.0
0.230422 -0.00352116 0.0
0.0512532 -0.000233674 0.0
0 0 0.0
0.133437 -0.00144622 0.0
0.0955764 -0.000791141 0.0
0.214068 -0.00329379 0.0
0.192364 -0.00269378 0.0
0.165726 -0.00217081 0.0
0 0 0.0
0.182935 -0.00221442 0.0
0.154741 -0.00174058 0.0
0.122061 -0.00117527 0.0
0.0439724 -0.000200248 0.0
0.0848478 -0.000650202 0.0
0.241938 -0.00392045 0.0
0.248314 -0.00385018 0.0
0.249721 -0.0040265 0.0
0.24625 -0.00369167 0.0
0.224496 -0.00303945 0.0
0.237778 -0.00346616 0.0
0.206038 -0.00273637 0.0
0.230731 -0.00394053 0.0
0 0 0.0
0.0517096 -0.000268965 0.0
0.134164 -0.00164793 0.0
0.0961989 -0.00089465 0.0
0.166413 -0.00245829 0.0
0.214517 -0.00370564 0.0
0.19308 -0.00312766 0.0
0 0 0.0
0 0 0.0
0.182421 -0.00239342 0.0
0.154176 -0.00187394 0.0
0.121491 -0.00126141 0.0
0.0843169 -0.000696726 0.0
0.0436027 -0.000214408 0.0
0.242104 -0.00436733 0.0
0.248343 -0.00427155 0.0
0.237538 -0.00372498 0.0
0.249622 -0.0044424 0.0
0.246043 -0.00406259 0.0
0.22412 -0.00331554 0.0
0.205569 -0.00296489 0.0
0.242231 -0.0047702 0.0
0.231039 -0.00441537 0.0
0.0522296 -0.0003079 0.0
0.0969733 -0.00102354 0.0
0.134989 -0.00189088 0.0
0.167023 -0.00273337 0.0
0.215004 -0.0041719 0.0
0.193553 -0.00344563 0.0
0 0 0.0
0 0 0.0
0.153691 -0.0019695 0.0
0.181712 -0.00261317 0.0
0.0838091 -0.000733164 0.0
0.120785 -0.00135362 0.0
0.0432048 -0.000230086 0.0
0.248368 -0.00494827 0.0
0.249481 -0.00490691 0.0
0.205052 -0.0032021 0.0
0.237268 -0.00399298 0.0
0.245862 -0.00437315 0.0
0.223536 -0.00370776 0.0
0.24236 -0.00519279 0.0
0.231499 -0.00515765 0.0
0.215521 -0.00471124 0.0
0.0528704 -0.000358965 0.0
0.0978658 -0.00118847 0.0
0.136072 -0.00222415 0.0
0.167863 -0.00311634 0.0
0.194416 -0.00404254 0.0
0 0 0.0
0 0 0.0
0.152901 -0.00211489 0.0
0.181073 -0.00279871 0.0
0.0831581 -0.000775807 0.0
0.120127 -0.00142739 0.0
0.0427694 -0.000243062 0.0
0.24565 -0.00470359 0.0
0.249304 -0.00540625 0.0
0.248337 -0.00549994 0.0
0.204472 -0.00344658 0.0
0.23689 -0.00435929 0.0
0.22303 -0.00403061 0.0
0.180372 -0.00297993 0.0
0.242549 -0.00604943 0.0
0 0 0.0
0.231823 -0.00581102 0.0
0.195182 -0.00461534 0.0
0.216067 -0.00532137 0.0
0.0535543 -0.000419936 0.0
0.136991 -0.00252765 0.0
0.0990136 -0.00141597 0.0
0.168992 -0.00369158 0.0
0 0 0.0
0 0 0.0
0 0 0.0
0 0 0.0
0 0 0.0
0.0423551 -0.000252317 0.0
0.119426 -0.00149709 0.0
0.152178 -0.00223473 0.0
0.082593 -0.000808945 0.0
0.245326 -0.00514919 0.0
0.24907 -0.00596048 0.0
0.248284 -0.00610716 0.0
0.22256 -0.00428998 0.0
0.203817 -0.00369824 0.0
0.236243 -0.00490865 0.0
0.203204 -0.00391425 0.0
0.179795 -0.00310983 0.0
0.242645 -0.0067648 0.0
0.23216 -0.00652802 0.0
0 0 0.0
9.29302e-05 -4.08146e-05 0.0
0 0 0.0
-0.00027552 0.0013691 0.0
0.216651 -0.00603124 0.0
0.195807 -0.00509728 0.0
0.0544326 -0.00050318 0.0
0.138199 -0.00293756 0.0
0.100232 -0.00166916 0.0
0.170067 -0.00426659 0.0
0 0 0.0
0 0 0.0
0 0 0.0
-0.000195428 0.000658475 0.0
2.16192e-06 -0.000150918 0.0
8.23574e-05 -9.97596e-05 0.0
0 0 0.0
0.0418962 -0.000263436 0.0
0.118803 -0.00154692 0.0
0.151399 -0.00234507 0.0
0.0818812 -0.000843467 0.0
0.244943 -0.00564368 0.0
0.248771 -0.00656478 0.0
0.248175 -0.00677242 0.0
0.222037 -0.00456939 0.0
0.23581 -0.00525916 0.0
0.202525 -0.00412793 0.0
0.178748 -0.00332437 0.0
0.242716 -0.00755034 0.0
0.23549 -0.00735989 0.0
0.225431 -0.00700396 0.0
0 0 0.0
0.000167758 -1.91719e-05 0.0
0 0 0.0
0 0 0.0
-0.00100061 0.00329949 0.0
-0.000916498 0.00203728 0.0
0.212509 -0.00652013 0.0
0.196682 -0.0058354 0.0
0.101506 -0.00194728 0.0
0.0553837 -0.000607054 0.0
0.139571 -0.0034398 0.0
0.171244 -0.00494202 0.0
0 0 0.0
-0.000273116 0.000217887 0.0
-0.000585029 0.000933269 0.0
-0.000119907 1.43613e-05 0.0
-3.25671e-05 7.74858e-05 0.0
0 0 0.0
0.0414229 -0.000273043 0.0
0.118035 -0.00160063 0.0
0.150567 -0.00244112 0.0
0.0812042 -0.000870709 0.0
0.244477 -0.00617216 0.0
0.248399 -0.00721976 0.0
0.248006 -0.00750429 0.0
0.221053 -0.00505117 0.0
0.235316 -0.00561231 0.0
0.201634 -0.00439348 0.0
0.149671 -0.00254441 0.0
0.177809 -0.00350098 0.0
0.242733 -0.00823278 0.0
0.232675 -0.00793741 0.0
0.217678 -0.00749232 0.0
0 0 0.0
5.26921e-05 7.1131e-05 0.0
0 0 0.0
0 0 0.0
0 0 0.0
0 0 0.0
-0.00160867 0.00219489 0.0
-0.000297913 0.00295671 0.0
-0.00105528 0.00442272 0.0
-0.00241899 0.00587745 0.0
-0.00196543 0.00386122 0.0
0 0 0.0
-8.90952e-05 0.00487382 0.0
0.19785 -0.00694812 0.0
0.172272 -0.00559286 0.0
0 0 0.0
0.0566429 -0.000755854 0.0
0.103143 -0.0023398 0.0
0.141385 -0.00419609 0.0
0 0 0.0
0 0 0.0
-0.000890915 0.000946956 0.0
-0.000597446 0.000506154 0.0