# vtk DataFile Version 3.0
Mesh NS-CD Problem
ASCII
DATASET UNSTRUCTURED_GRID
POINTS 10839 float
-2 0.3 0.0
-2 0.4 0.0
-2 0.35 0.0
-2 0.45 0.0
-2 0.5 0.0
-2 0.55 0.0
-2 0 0.0
-2 0.05 0.0
-2 0.85 0.0
-2 0.9 0.0
-2 0.1 0.0
-2 0.15 0.0
-2 0.25 0.0
-2 0.2 0.0
-1.96653 0.266667 0.0
-1.96524 0.415385 0.0
-1.96485 0.315 0.0
-1.96348 0.363636 0.0
-1.96414 0.464286 0.0
-2 0.6 0.0
-1.96538 0.584615 0.0
-1.96538 0.538462 0.0
-1.94979 0 0.0
-1.96653 0.0666666 0.0
-1.93306 0.0333333 0.0
-2 0.8 0.0
-2 0.75 0.0
-2 0.7 0.0
-2 0.65 0.0
-1.96249 0.7375 0.0
-1.96666 0.833333 0.0
-2 1 0.0
-2 0.95 0.0
-1.96249 0.8875 0.0
-1.96666 0.933333 0.0
-1.96234 0.1125 0.0
-1.96653 0.166667 0.0
-1.93724 0.225 0.0
-1.92971 0.28 0.0
-1.93048 0.380769 0.0
-1.93048 0.423077 0.0
-1.89958 0.3375 0.0
-1.9292 0.484203 0.0
-1.92117 0.530907 0.0
-1.96363 0.636364 0.0
-1.93076 0.576923 0.0
-1.89958 0 0.0
-1.88703 0.0375 0.0
-1.90963 0.08 0.0
-1.86611 0.0666666 0.0
-1.93749 0.775 0.0
-1.93635 0.672727 0.0
-1.92999 0.72 0.0
-1.93332 0.866667 0.0
-1.92856 0.821429 0.0
-1.94999 1 0.0
-1.92499 0.9625 0.0
-1.92499 0.925 0.0
-1.89998 0.9 0.0
-1.89958 0.125 0.0
-1.92827 0.178571 0.0
-1.89958 0.233333 0.0
-1.89045 0.290909 0.0
-1.86096 0.311538 0.0
-1.89241 0.392857 0.0
-1.89334 0.448489 0.0
-1.85655 0.357143 0.0
-1.89614 0.653846 0.0
-1.89427 0.504121 0.0
-1.8952 0.559753 0.0
-1.89614 0.615385 0.0
-1.84937 0 0.0
-1.83264 0.0333333 0.0
-1.85655 0.107143 0.0
-1.81172 0.075 0.0
-1.89998 0.766667 0.0
-1.89089 0.709091 0.0
-1.87498 0.85 0.0
-1.85998 0.79 0.0
-1.88748 0.8125 0.0
-1.89998 1 0.0
-1.88748 0.9625 0.0
-1.86664 0.933333 0.0
-1.85712 0.892857 0.0
-1.87448 0.15 0.0
-1.86611 0.194444 0.0
-1.83264 0.133333 0.0
-1.83264 0.2625 0.0
-1.82068 0.321429 0.0
-1.85664 0.404762 0.0
-1.85674 0.452381 0.0
-1.85683 0.5 0.0
-1.81184 0.375 0.0
-1.85712 0.642857 0.0
-1.85693 0.547619 0.0
-1.85702 0.595238 0.0
-1.79917 0 0.0
-1.78482 0.0357143 0.0
-1.79917 0.116667 0.0
-1.76569 0.0666666 0.0
-1.85452 0.745455 0.0
-1.82689 0.692308 0.0
-1.81815 0.781818 0.0
-1.82497 0.825 0.0
-1.84997 1 0.0
-1.8333 0.958333 0.0
-1.81247 0.8875 0.0
-1.81247 0.925 0.0
-1.81742 0.218182 0.0
-1.82427 0.175 0.0
-1.77634 0.145455 0.0
-1.79144 0.242308 0.0
-1.78482 0.285714 0.0
-1.77469 0.332653 0.0
-1.81215 0.529762 0.0
-1.81194 0.422619 0.0
-1.81203 0.470238 0.0
-1.76714 0.392857 0.0
-1.81234 0.625 0.0
-1.79732 0.571429 0.0
-1.74896 0 0.0
-1.73222 0.0333333 0.0
-1.75398 0.105 0.0
-1.71883 0.07 0.0
-1.79227 0.730769 0.0
-1.78007 0.679121 0.0
-1.75765 0.769231 0.0
-1.78178 0.818182 0.0
-1.78996 0.86 0.0
-1.79996 1 0.0
-1.78568 0.964286 0.0
-1.76663 0.922222 0.0
-1.76569 0.1875 0.0
-1.73222 0.15 0.0
-1.74896 0.25 0.0
-1.73714 0.304762 0.0
-1.76743 0.537202 0.0
-1.72869 0.343878 0.0
-1.76732 0.485119 0.0
-1.76723 0.440476 0.0
-1.72243 0.410714 0.0
-1.76757 0.607143 0.0
-1.69875 0 0.0
-1.68369 0.035 0.0
-1.69875 0.1125 0.0
-1.66528 0.075 0.0
-1.74341 0.708974 0.0
-1.73324 0.665934 0.0
-1.70441 0.74478 0.0
-1.71423 0.785714 0.0
-1.72303 0.826923 0.0
-1.74541 0.854545 0.0
-1.74541 0.890909 0.0
-1.74996 1 0.0
-1.73745 0.9625 0.0
-1.71359 0.927273 0.0
-1.68716 0.153846 0.0
-1.7131 0.214286 0.0
-1.70725 0.275 0.0
-1.69712 0.321939 0.0
-1.72279 0.589286 0.0
-1.72261 0.5 0.0
-1.7227 0.544643 0.0
-1.6827 0.355102 0.0
-1.67773 0.428571 0.0
-1.70763 0.464286 0.0
-1.70369 0.62449 0.0
-1.64854 0 0.0
-1.63181 0.0375 0.0
-1.64137 0.142857 0.0
-1.61764 0.0769231 0.0
-1.69458 0.703846 0.0
-1.67471 0.657437 0.0
-1.66143 0.727637 0.0
-1.67125 0.768571 0.0
-1.67851 0.821429 0.0
-1.68841 0.861538 0.0
-1.70904 0.890909 0.0
-1.69995 1 0.0
-1.68176 0.963636 0.0
-1.67267 0.927273 0.0
-1.65427 0.187143 0.0
-1.66718 0.231429 0.0
-1.66554 0.3 0.0
-1.67802 0.571429 0.0
-1.67792 0.523809 0.0
-1.6367 0.366327 0.0
-1.63682 0.423469 0.0
-1.62568 0.502976 0.0
-1.6629 0.470238 0.0
-1.65254 0.618367 0.0
-1.6059 0.307143 0.0
-1.59833 0 0.0
-1.58288 0.0384615 0.0
-1.60563 0.169643 0.0
-1.58179 0.112271 0.0
-1.56964 0.0714286 0.0
-1.64574 0.690385 0.0
-1.62827 0.751429 0.0
-1.63371 0.791071 0.0
-1.64279 0.857143 0.0
-1.65378 0.896154 0.0
-1.64994 1 0.0
-1.6363 0.963636 0.0
-1.61916 0.930769 0.0
-1.61345 0.209107 0.0
-1.62126 0.248571 0.0
-1.56989 0.196429 0.0
-1.63324 0.553571 0.0
-1.58846 0.535714 0.0
-1.59408 0.361905 0.0
-1.59161 0.402211 0.0
-1.58832 0.464286 0.0
-1.61504 0.598581 0.0
-1.59683 0.64359 0.0
-1.57899 0.274107 0.0
-1.56176 0.322381 0.0
-1.54812 0 0.0
-1.53378 0.0357143 0.0
-1.54593 0.147619 0.0
-1.53385 0.0732143 0.0
-1.53393 0.110714 0.0
-1.58522 0.704286 0.0
-1.58709 0.745 0.0
-1.58896 0.785714 0.0
-1.60695 0.830357 0.0
-1.60707 0.892857 0.0
-1.59993 1 0.0
-1.58454 0.965385 0.0
-1.57135 0.928571 0.0
-1.55209 0.241071 0.0
-1.5291 0.198214 0.0
-1.56936 0.570918 0.0
-1.54369 0.517857 0.0
-1.5464 0.380952 0.0
-1.54564 0.427721 0.0
-1.54488 0.47449 0.0
-1.55026 0.606122 0.0
-1.54222 0.677143 0.0
-1.52943 0.282857 0.0
-1.52143 0.33619 0.0
-1.49792 0 0.0
-1.49802 0.05 0.0
-1.49822 0.15 0.0
-1.49312 0.1 0.0
-1.5423 0.717143 0.0
-1.54419 0.767857 0.0
-1.54727 0.819048 0.0
-1.57122 0.861905 0.0
-1.53553 0.914286 0.0
-1.54992 1 0.0
-1.53563 0.964286 0.0
-1.49842 0.25 0.0
-1.48831 0.2 0.0
-1.5214 0.558929 0.0
-1.49891 0.5 0.0
-1.49871 0.4 0.0
-1.47631 0.45 0.0
-1.49911 0.6 0.0
-1.49921 0.65 0.0
-1.49931 0.7 0.0
-1.48111 0.35 0.0
-1.48351 0.3 0.0
-1.44771 0 0.0
-1.44782 0.05 0.0
-1.44804 0.15 0.0
-1.44793 0.1 0.0
-1.49941 0.75 0.0
-1.49951 0.8 0.0
-1.49981 0.95 0.0
-1.49961 0.85 0.0
-1.49971 0.9 0.0
-1.49991 1 0.0
-1.44826 0.25 0.0
-1.43815 0.2 0.0
-1.47151 0.55 0.0
-1.44881 0.5 0.0
-1.44859 0.4 0.0
-1.42619 0.45 0.0
-1.44913 0.65 0.0
-1.44902 0.6 0.0
-1.44935 0.75 0.0
-1.44924 0.7 0.0
-1.43972 0.35 0.0
-1.43336 0.3 0.0
-1.3975 0 0.0
-1.39762 0.05 0.0
-1.39786 0.15 0.0
-1.39274 0.1 0.0
-1.44957 0.85 0.0
-1.44946 0.8 0.0
-1.4523 0.95 0.0
-1.44968 0.9 0.0
-1.4499 1 0.0
-1.3981 0.25 0.0
-1.38798 0.2 0.0
-1.42141 0.55 0.0
-1.3987 0.5 0.0
-1.39834 0.35 0.0
-1.37845 0.4 0.0
-1.37607 0.45 0.0
-1.40784 0.65 0.0
-1.39894 0.6 0.0
-1.41185 0.75 0.0
-1.39918 0.7 0.0
-1.38322 0.3 0.0
-1.34729 0 0.0
-1.34492 0.05 0.0
-1.34018 0.15 0.0
-1.34255 0.1 0.0
-1.40707 0.85 0.0
-1.39941 0.8 0.0
-1.39977 0.95 0.0
-1.39965 0.9 0.0
-1.39989 1 0.0
-1.33781 0.2 0.0
-1.33544 0.25 0.0
-1.37131 0.55 0.0
-1.34859 0.5 0.0
-1.33833 0.4 0.0
-1.3307 0.35 0.0
-1.32595 0.45 0.0
-1.34885 0.6 0.0
-1.36655 0.65 0.0
-1.36179 0.75 0.0
-1.34911 0.7 0.0
-1.33307 0.3 0.0
-1.29708 0 0.0
-1.29722 0.05 0.0
-1.2975 0.15 0.0
-1.29236 0.1 0.0
-1.35703 0.85 0.0
-1.34937 0.8 0.0
-1.34988 1 0.0
-1.34962 0.9 0.0
-1.35226 0.95 0.0
-1.28528 0.25 0.0
-1.28764 0.2 0.0
-1.28931 0.35 0.0
-1.32121 0.55 0.0
-1.29848 0.5 0.0
-1.28709 0.45 0.0
-1.2982 0.4 0.0
-1.29876 0.6 0.0
-1.31647 0.65 0.0
-1.29918 0.75 0.0
-1.29904 0.7 0.0
-1.28292 0.3 0.0
-1.24687 0 0.0
-1.24702 0.05 0.0
-1.24717 0.1 0.0
-1.24732 0.15 0.0
-1.29946 0.85 0.0
-1.29932 0.8 0.0
-1.29987 1 0.0
-1.29974 0.95 0.0
-1.30462 0.9 0.0
-1.24762 0.25 0.0
-1.23747 0.2 0.0
-1.24792 0.35 0.0
-1.22807 0.4 0.0
-1.27111 0.55 0.0
-1.24837 0.5 0.0
-1.24822 0.45 0.0
-1.24867 0.6 0.0
-1.26639 0.65 0.0
-1.26167 0.75 0.0
-1.24897 0.7 0.0
-1.23277 0.3 0.0
-1.19667 0 0.0
-1.19683 0.05 0.0
-1.18964 0.15 0.0
-1.19198 0.1 0.0
-1.25695 0.85 0.0
-1.24927 0.8 0.0
-1.25223 0.95 0.0
-1.24987 1 0.0
-1.24957 0.9 0.0
-1.1873 0.2 0.0
-1.18496 0.25 0.0
-1.18028 0.35 0.0
-1.17794 0.4 0.0
-1.1981 0.45 0.0
-1.19842 0.55 0.0
-1.19826 0.5 0.0
-1.19858 0.6 0.0
-1.19874 0.65 0.0
-1.19906 0.75 0.0
-1.1989 0.7 0.0
-1.18262 0.3 0.0
-1.14646 0 0.0
-1.14663 0.05 0.0
-1.1418 0.1 0.0
-1.13713 0.2 0.0
-1.14697 0.15 0.0
-1.20691 0.85 0.0
-1.20926 0.8 0.0
-1.20221 0.95 0.0
-1.19986 1 0.0
-1.20456 0.9 0.0
-1.13997 0.3 0.0
-1.14731 0.25 0.0
-1.13781 0.4 0.0
-1.13014 0.35 0.0
-1.12548 0.45 0.0
-1.14815 0.5 0.0
-1.15962 0.55 0.0
-1.14849 0.6 0.0
-1.15745 0.65 0.0
-1.16155 0.75 0.0
-1.14917 0.8 0.0
-1.14883 0.7 0.0
-1.09625 0 0.0
-1.09661 0.1 0.0
-1.09393 0.05 0.0
-1.09697 0.2 0.0
-1.08929 0.15 0.0
-1.15687 0.85 0.0
-1.14985 1 0.0
-1.15219 0.95 0.0
-1.14951 0.9 0.0
-1.09733 0.3 0.0
-1.08465 0.25 0.0
-1.09769 0.4 0.0
-1.08 0.35 0.0
-1.08661 0.45 0.0
-1.09804 0.5 0.0
-1.12082 0.55 0.0
-1.10916 0.8 0.0
-1.10629 0.7 0.0
-1.0984 0.6 0.0
-1.11616 0.65 0.0
-1.11149 0.75 0.0
-1.04604 0 0.0
-1.04623 0.05 0.0
-1.04642 0.1 0.0
-1.0468 0.2 0.0
-1.03911 0.15 0.0
-1.09948 0.9 0.0
-1.0993 0.85 0.0
-1.09984 1 0.0
-1.09966 0.95 0.0
-1.04718 0.3 0.0
-1.03449 0.25 0.0
-1.04756 0.4 0.0
-1.02986 0.35 0.0
-1.04775 0.45 0.0
-1.04794 0.5 0.0
-1.04813 0.55 0.0
-1.05911 0.8 0.0
-1.04831 0.6 0.0
-1.06376 0.7 0.0
-1.0485 0.65 0.0
-1.04888 0.75 0.0
-0.995833 0 0.0
-0.991231 0.1 0.0
-0.996033 0.05 0.0
-0.986629 0.2 0.0
-0.98893 0.15 0.0
-1.05447 0.9 0.0
-1.04926 0.85 0.0
-1.04983 1 0.0
-1.04964 0.95 0.0
-0.984328 0.25 0.0
-0.99703 0.3 0.0
-0.997429 0.4 0.0
-0.997628 0.45 0.0
-0.979726 0.35 0.0
-0.997827 0.5 0.0
-0.998027 0.55 0.0
-0.998226 0.6 0.0
-0.961416 0.475 0.0
-1.00907 0.8 0.0
-0.998426 0.65 0.0
-0.998625 0.7 0.0
-1.01138 0.75 0.0
-0.945625 0 0.0
-0.946044 0.1 0.0
-0.943334 0.05 0.0
-0.946463 0.2 0.0
-0.938752 0.15 0.0
-1.00444 0.9 0.0
-1.00675 0.85 0.0
-0.999821 1 0.0
-1.00213 0.95 0.0
-0.93417 0.25 0.0
-0.946881 0.3 0.0
-0.9473 0.4 0.0
-0.929588 0.35 0.0
-0.925005 0.45 0.0
-0.960371 0.525 0.0
-0.959325 0.575 0.0
-0.958279 0.625 0.0
-0.922714 0.5 0.0
-0.959017 0.8 0.0
-0.957233 0.675 0.0
-0.952999 0.7125 0.0
-0.948766 0.75 0.0
-0.895417 0 0.0
-0.895855 0.1 0.0
-0.893136 0.05 0.0
-0.896294 0.2 0.0
-0.888573 0.15 0.0
-0.949184 0.85 0.0
-0.954415 0.9 0.0
-0.949812 1 0.0
-0.949603 0.95 0.0
-0.884011 0.25 0.0
-0.896733 0.3 0.0
-0.874887 0.45 0.0
-0.879449 0.35 0.0
-0.897171 0.4 0.0
-0.920423 0.55 0.0
-0.918132 0.6 0.0
-0.915841 0.65 0.0
-0.872606 0.5 0.0
-0.908968 0.8 0.0
-0.91355 0.7 0.0
-0.898707 0.75 0.0
-0.845208 0 0.0
-0.845438 0.05 0.0
-0.845667 0.1 0.0
-0.845896 0.15 0.0
-0.833853 0.25 0.0
-0.846126 0.2 0.0
-0.899146 0.85 0.0
-0.904386 0.9 0.0
-0.899584 0.95 0.0
-0.899804 1 0.0
-0.838062 0.35 0.0
[...]
POINT_DATA 10839
VECTORS Velocity float
0.21 0 0.0
0.24 0 0.0
0.2275 0 0.0
0.2475 0 0.0
0.25 0 0.0
0.2475 0 0.0
0 0 0.0
0.0475 0 0.0
0.1275 0 0.0
0.09 0 0.0
0.09 0 0.0
0.1275 0 0.0
0.1875 0 0.0
0.16 0 0.0
0.19565 -0.000660416 0.0
0.242758 -0.000508549 0.0
0.215743 -0.00082479 0.0
0.231342 -0.000786858 0.0
0.248598 -0.000206328 0.0
0.24 0 0.0
0.242756 0.000484248 0.0
0.248397 0.000169357 0.0
0 0 0.0
0.0620309 0.00120093 0.0
0.0310654 0.000172366 0.0
0.16 0 0.0
0.1875 0 0.0
0.21 0 0.0
0.2275 0 0.0
0.193699 0.000720835 0.0
0.13906 -0.00024617 0.0
0 0 0.0
0.0475 0 0.0
0.100038 -0.00103096 0.0
0.0620786 -0.0012162 0.0
0.0998523 0.00108921 0.0
0.139092 0.00021986 0.0
0.174756 -0.00118991 0.0
0.201735 -0.00193764 0.0
0.235488 -0.00153426 0.0
0.243704 -0.00107433 0.0
0.223242 -0.00329303 0.0
0.249243 -0.00022531 0.0
0.248484 0.000470053 0.0
0.231316 0.000737219 0.0
0.243708 0.00105415 0.0
0 0 0.0
0.0378828 -0.00249406 0.0
0.0743675 -0.00346662 0.0
0.0671508 -0.00861405 0.0
0.174752 0.00115019 0.0
0.220095 0.00161392 0.0
0.201767 0.00191725 0.0
0.116028 0.000232595 0.0
0.147352 0.00117007 0.0
0 0 0.0
0.0352704 0.000309765 0.0
0.069495 0.00101925 0.0
0.0904499 0.00553786 0.0
0.10999 -0.00560935 0.0
0.147292 -0.00104942 0.0
0.179368 -0.00410903 0.0
0.206208 -0.00463291 0.0
0.213403 -0.00752529 0.0
0.237612 -0.00274554 0.0
0.246204 -0.0013936 0.0
0.227843 -0.00629011 0.0
0.225846 0.00341514 0.0
0.248777 0.000124981 0.0
0.245363 0.00147503 0.0
0.235935 0.00260049 0.0
0 0 0.0
0.0428271 -0.00378608 0.0
0.0974401 -0.0150286 0.0
0.0850226 -0.0151767 0.0
0.179375 0.00406732 0.0
0.206103 0.00447412 0.0
0.127662 0.0108393 0.0
0.165401 0.0121007 0.0
0.15285 0.006532 0.0
0 0 0.0
0.0378678 0.0025543 0.0
0.067324 0.00860211 0.0
0.0974234 0.0148882 0.0
0.12757 -0.0110192 0.0
0.156549 -0.0113327 0.0
0.116065 -0.0215805 0.0
0.191688 -0.015465 0.0
0.214683 -0.0135329 0.0
0.238787 -0.00425076 0.0
0.245335 -0.00220517 0.0
0.247502 -5.78685e-05 0.0
0.229748 -0.0105011 0.0
0.227877 0.00615614 0.0
0.245347 0.00205641 0.0
0.238757 0.00414544 0.0
0 0 0.0
0.056478 -0.00461698 0.0
0.11001 -0.0250829 0.0
0.092591 -0.0128129 0.0
0.188956 0.0110126 0.0
0.210241 0.0133291 0.0
0.167452 0.0227441 0.0
0.142562 0.0235195 0.0
0 0 0.0
0.0519539 0.00568705 0.0
0.105801 0.0230364 0.0
0.0847475 0.0150454 0.0
0.167352 -0.0228594 0.0
0.14232 -0.0236499 0.0
0.127572 -0.0309871 0.0
0.1779 -0.0274473 0.0
0.197244 -0.0247699 0.0
0.21368 -0.0211028 0.0
0.243876 0.00233822 0.0
0.239012 -0.00647261 0.0
0.243897 -0.00250463 0.0
0.228798 -0.014413 0.0
0.22972 0.0103382 0.0
0.238578 0.00699515 0.0
0 0 0.0
0.0643872 -0.00347867 0.0
0.114839 -0.023483 0.0
0.10831 -0.0119225 0.0
0.190952 0.0246515 0.0
0.210205 0.0214662 0.0
0.169877 0.034824 0.0
0.145682 0.0326119 0.0
0.123085 0.0292104 0.0
0 0 0.0
0.0562657 0.00455031 0.0
0.0991091 0.016076 0.0
0.149029 -0.035057 0.0
0.135623 -0.0321161 0.0
0.178137 -0.0347921 0.0
0.199116 -0.0306826 0.0
0.238598 0.00487513 0.0
0.210748 -0.0262847 0.0
0.23968 -0.00203085 0.0
0.236516 -0.00802213 0.0
0.225293 -0.015867 0.0
0.228817 0.014048 0.0
0 0 0.0
0.0756779 -0.00289048 0.0
0.131269 -0.0217861 0.0
0.124843 -0.0100498 0.0
0.194598 0.0313763 0.0
0.208415 0.0270431 0.0
0.177476 0.0369374 0.0
0.161949 0.0373699 0.0
0.145435 0.0349268 0.0
0.131871 0.0317559 0.0
0.118375 0.0240728 0.0
0 0 0.0
0.0697239 0.00440589 0.0
0.111326 0.0123572 0.0
0.144667 -0.0293262 0.0
0.162048 -0.03764 0.0
0.185025 -0.0359335 0.0
0.199646 -0.0312792 0.0
0.225229 0.0156731 0.0
0.232837 -0.000101007 0.0
0.231008 0.00784376 0.0
0.206819 -0.0269163 0.0
0.219719 -0.0141782 0.0
0.228912 -0.00693322 0.0
0.215004 0.0228403 0.0
0 0 0.0
0.0871289 -0.00230961 0.0
0.149828 -0.0220894 0.0
0.135188 -0.00768178 0.0
0.191118 0.0339875 0.0
0.202315 0.0283331 0.0
0.181502 0.0339468 0.0
0.16913 0.0351413 0.0
0.152731 0.0319189 0.0
0.140211 0.0264113 0.0
0.127708 0.0216978 0.0
0 0 0.0
0.0781165 0.00304637 0.0
0.121496 0.00992629 0.0
0.157903 -0.0301043 0.0
0.169409 -0.035089 0.0
0.189997 -0.0329784 0.0
0.219705 0.0139435 0.0
0.223728 0.00463245 0.0
0.202596 -0.0237067 0.0
0.21155 -0.0146238 0.0
0.213868 0.000388369 0.0
0.220509 -0.00612202 0.0
0.207759 0.0218771 0.0
0.187548 -0.0265617 0.0
0 0 0.0
0.0937081 -0.00164917 0.0
0.160333 -0.021632 0.0
0.154441 -0.011005 0.0
0.138152 -0.00483141 0.0
0.190845 0.0304871 0.0
0.174825 0.0304031 0.0
0.165084 0.0291988 0.0
0.149872 0.0220017 0.0
0.139192 0.0154876 0.0
0 0 0.0
0.0844017 0.00221851 0.0
0.129235 0.00644072 0.0
0.166829 -0.0265919 0.0
0.175097 -0.029717 0.0
0.168152 -0.0198197 0.0
0.213116 0.0100298 0.0
0.206407 0.00574504 0.0
0.196639 -0.020718 0.0
0.201855 -0.0156377 0.0
0.206319 -0.00611906 0.0
0.205088 0.0169303 0.0
0.195905 0.0212799 0.0
0.180634 -0.0240551 0.0
0.188024 -0.0204053 0.0
0 0 0.0
0.0915698 -0.000971895 0.0
0.164264 -0.0125488 0.0
0.143354 -0.00386018 0.0
0.160279 -0.00777942 0.0
0.18428 0.0240757 0.0
0.176895 0.0247393 0.0
0.169381 0.0233073 0.0
0.159988 0.0215883 0.0
0.149134 0.0120773 0.0
0 0 0.0
0.0859102 0.00136929 0.0
0.137947 0.00475412 0.0
0.175531 -0.0199889 0.0
0.171276 -0.0153679 0.0
0.20132 0.0102068 0.0
0.20038 0.00216202 0.0
0.194301 -0.0145573 0.0
0.198355 -0.00954026 0.0
0.200449 -0.00359104 0.0
0.195887 0.013175 0.0
0.186952 0.0178253 0.0
0.181545 -0.0177961 0.0
0.187733 -0.0154439 0.0
0 0 0.0
0.119177 -0.00144536 0.0
0.168927 -0.00924158 0.0
0.161048 -0.00486508 0.0
0.181518 0.0189696 0.0
0.174417 0.0184407 0.0
0.167679 0.0157136 0.0
0.159681 0.0136195 0.0
0.151074 0.0049965 0.0
0 0 0.0
0.0913314 0.000986925 0.0
0.178074 -0.0143343 0.0
0.173722 -0.0117427 0.0
0.196309 0.00641323 0.0
0.195305 -0.000262048 0.0
0.191888 -0.00947632 0.0
0.192394 -0.00451648 0.0
0.191817 0.00906743 0.0
0.187817 0.0123569 0.0
0.182916 0.0140742 0.0
0.187146 -0.0113676 0.0
0.182928 -0.0130342 0.0
0 0 0.0
0.121562 -0.000873055 0.0
0.172248 -0.00646168 0.0
0.164429 -0.00346857 0.0
0.177741 0.0140919 0.0
0.172876 0.0123614 0.0
0.118739 0.00139541 0.0
0.168321 0.00915041 0.0
0.159912 0.00501551 0.0
0 0 0.0
0.178844 -0.0102001 0.0
0.175846 -0.00831337 0.0
0.192004 0.00387601 0.0
0.191049 -0.000261916 0.0
0.188619 -0.00690711 0.0
0.189056 -0.0033109 0.0
0.185645 0.00870248 0.0
0.188491 0.00638654 0.0
0.17852 0.00990522 0.0
0.1822 0.0099239 0.0
0.185553 -0.0086268 0.0
0.182309 -0.00931494 0.0
0 0 0.0
0.123404 -0.000479688 0.0
0.174658 -0.00452066 0.0
0.167235 -0.00235485 0.0
0.171853 0.00628824 0.0
0.175015 0.00866667 0.0
0.120987 0.000848537 0.0
0.163814 0.00337915 0.0
0 0 0.0
0.179499 -0.00724356 0.0
0.17737 -0.00588669 0.0
0.188656 0.00262301 0.0
0.187948 -0.000319984 0.0
0.184372 -0.00654397 0.0
0.185567 -0.00437436 0.0
0.186552 -0.00246979 0.0
0.184376 0.00642821 0.0
0.186152 0.00439555 0.0
0.178976 0.00752857 0.0
0.181689 0.00689772 0.0
0.181912 -0.00665783 0.0
0 0 0.0
0.124219 -0.00052003 0.0
0.17659 -0.00303098 0.0
0.168978 -0.00170067 0.0
0.17381 0.00454494 0.0
0.176629 0.00600502 0.0
0.12254 0.000492094 0.0
0.166413 0.00227342 0.0
0 0 0.0
0.178483 -0.00418975 0.0
0.180054 -0.00473851 0.0
0.186282 0.00172248 0.0
0.185828 -0.000363461 0.0
0.184449 -0.00341173 0.0
0.183084 -0.00422706 0.0
0.184858 -0.00188061 0.0
0.184499 0.00294718 0.0
0.183399 0.00470001 0.0
0.179387 0.00517866 0.0
0.181324 0.00472343 0.0
0.181652 -0.0047849 0.0
0 0 0.0
0.12467 -0.00038812 0.0
0.177588 -0.00228112 0.0
0.170189 -0.00121222 0.0
0.175535 0.00309137 0.0
0.177719 0.00411761 0.0
0 0 0.0
0.168319 0.00153433 0.0
0.123551 0.000369227 0.0
0.180393 -0.00343517 0.0
0.179278 -0.00300226 0.0
0.182566 -0.00327647 0.0
0.184604 0.00104888 0.0
0.1843 -0.000424196 0.0
0.183898 -0.00156835 0.0
0.183572 -0.00270313 0.0
0.183331 0.00190733 0.0
0.182539 0.00315377 0.0
0.179745 0.00316346 0.0
0.181057 0.00317697 0.0
0.181492 -0.00348372 0.0
0 0 0.0
0.125425 -0.000160585 0.0
0.170897 -0.000844222 0.0
0.178412 -0.0016452 0.0
0.176884 0.00196113 0.0
0.178483 0.00277683 0.0
0 0 0.0
0.124141 0.000249328 0.0
0.169104 0.00107762 0.0
0.180613 -0.00272518 0.0
0.179908 -0.00219951 0.0
0.182183 -0.00258798 0.0
0.182556 -0.00189733 0.0
0.183432 0.000554278 0.0
0.18325 -0.000496514 0.0
0.183168 -0.00134543 0.0
0.182505 0.00114821 0.0
0.181925 0.00204231 0.0
0.179881 0.00231761 0.0
0.180858 0.00206454 0.0
0.181407 -0.00260508 0.0
0 0 0.0
0.125895 -4.06007e-05 0.0
0.179353 -0.00117885 0.0
0.171872 -0.000577285 0.0
0.17754 0.00137169 0.0
0.178997 0.00182341 0.0
0.124351 0.000140848 0.0
0 0 0.0
0.169874 0.000675192 0.0
0.18034 -0.00167108 0.0
0.180873 -0.00192794 0.0
0.181796 -0.00186688 0.0
0.182107 -0.00156767 0.0
0.182489 -0.00117257 0.0
0.182304 3.19864e-05 0.0
0.182507 -0.000580156 0.0
0.181913 0.000584383 0.0
0.181351 0.00100483 0.0
0.18001 0.00128806 0.0
0.180697 0.00126126 0.0
0.181368 -0.00201653 0.0
0 0 0.0
0.126389 -9.58792e-05 0.0
0.172183 -0.000536158 0.0
0.18071 -0.00133403 0.0
0.179648 -0.000971765 0.0
0.178086 0.000863391 0.0
0.17927 0.0012623 0.0
0.124794 7.36368e-05 0.0
0 0 0.0
0.1705 0.000425768 0.0
0.181365 -0.00168454 0.0
0.18103 -0.00162936 0.0
0.181851 -0.00140176 0.0
0.181627 -0.00157072 0.0
0.181856 -0.00107893 0.0
0.181987 -0.000678818 0.0
0.181909 -0.000187273 0.0
0.181485 0.000151003 0.0
0.181105 0.00054914 0.0
0.180048 0.000844007 0.0
0.179546 0.000644994 0.0
0.180561 0.000667104 0.0
0 0 0.0
0.172826 -0.000508502 0.0
0.126665 -0.000281141 0.0
0.180961 -0.0011551 0.0
0.180107 -0.000832059 0.0
0.178396 0.00048601 0.0
0 0 0.0
0.124993 9.72608e-07 0.0
0.170888 0.000201241 0.0
0.181391 -0.00146974 0.0
0.181224 -0.00132786 0.0
0.181672 -0.00131196 0.0
0.181535 -0.00140719 0.0
0.181643 -0.00109294 0.0
0.181624 -0.000797087 0.0
0.181594 -0.000383557 0.0
0.17962 0.000342911 0.0
0.180457 0.000275422 0.0
0.181173 -0.000195593 0.0
0.1809 0.000182836 0.0
0.180048 0.000384648 0.0
0 0 0.0
0.126228 -0.000152167 0.0
0.172785 -0.000468385 0.0
0.181206 -0.00102263 0.0
0.180459 -0.000743634 0.0
0.171128 7.41058e-05 0.0
0.178544 0.000176791 0.0
0 0 0.0
0.12544 -6.21575e-05 0.0
0.18144 -0.00133465 0.0
0.181391 -0.00121312 0.0
0.181522 -0.00128024 0.0
0.181497 -0.00135006 0.0
0.181479 -0.00113982 0.0
0.181365 -0.000937649 0.0
0.181177 -0.000709959 0.0
0.179653 4.70687e-05 0.0
0.18093 -0.000491991 0.0
0.180353 -4.40767e-05 0.0
0.180635 -0.000292545 0.0
0.179999 -5.00897e-05 0.0
0 0 0.0
0.173207 -0.000399424 0.0
0.127236 -2.41691e-05 0.0
0.181486 -0.000959162 0.0
0.18077 -0.000707758 0.0
0.17103 -1.59388e-05 0.0
0.178685 -3.68248e-05 0.0
0 0 0.0
0.12475 4.75529e-05 0.0
0.181553 -0.00118584 0.0
0.181517 -0.00130019 0.0
0.18144 -0.00132919 0.0
0.181337 -0.00123924 0.0
0.181501 -0.00137514 0.0
0.181183 -0.0010998 0.0
0.180984 -0.000933473 0.0
0.18074 -0.000756003 0.0
0.181178 -0.00129812 0.0
0.179635 -0.00020553 0.0
0.180471 -0.000586884 0.0
0.180192 -0.000440536 0.0
0.179938 -0.000261159 0.0
0 0 0.0
0.173752 -0.000396358 0.0
0.12739 -0.000198523 0.0
0.18168 -0.000983945 0.0
0.181 -0.000741835 0.0
0.171056 -0.000154114 0.0
0.178698 -0.000173759 0.0
0 0 0.0
0.124875 -6.7741e-05 0.0
0.181732 -0.0012262 0.0
0.181618 -0.00134535 0.0
0.181394 -0.00143551 0.0
0.181542 -0.00147647 0.0
0.181212 -0.00147786 0.0
0.180972 -0.00117784 0.0
0.180735 -0.00103529 0.0
0.180476 -0.000882966 0.0
0.180996 -0.00140603 0.0
0.179556 -0.000415847 0.0
0.180209 -0.000734653 0.0
0.180004 -0.000648579 0.0
0.179807 -0.000567158 0.0
0 0 0.0
0.173839 -0.000476432 0.0
0.127459 -0.000194792 0.0
0.181931 -0.00106004 0.0
0.181312 -0.000807681 0.0
0.178626 -0.000331748 0.0
0.17099 -0.000288466 0.0
0 0 0.0
0.125104 -0.000211515 0.0
0.181928 -0.00133551 0.0
0.181744 -0.00146053 0.0
0.181161 -0.0016975 0.0
0.18161 -0.00163976 0.0
0.181398 -0.0016087 0.0
0.180751 -0.00129997 0.0
0.180486 -0.00117062 0.0
0.180214 -0.00102895 0.0
0.180901 -0.00165332 0.0
0.179432 -0.000597121 0.0
0.179948 -0.000881186 0.0
0.179656 -0.00079367 0.0
0 0 0.0
0.127226 -0.000195723 0.0
0.174106 -0.00054784 0.0
0.181697 -0.000885045 0.0
0.182151 -0.00150373 0.0
0.182188 -0.00118405 0.0
0.178467 -0.00047178 0.0
0.170844 -0.000278347 0.0
0.124651 -4.66978e-05 0.0
0 0 0.0
0.181688 -0.00182392 0.0
0.181898 -0.00164416 0.0
0.181143 -0.00190808 0.0
0.18142 -0.00184461 0.0
0.18005 -0.00129655 0.0
0.180622 -0.00156457 0.0
0.180333 -0.00144259 0.0
0.180827 -0.00194368 0.0
0.179479 -0.00101494 0.0
0.179213 -0.000803787 0.0
0.179723 -0.00120673 0.0
0 0 0.0
0.128051 -0.00019256 0.0
0.17463 -0.00059774 0.0
0.181968 -0.00100576 0.0
0.182335 -0.00166962 0.0
0.182571 -0.0014186 0.0
0.178302 -0.000599211 0.0
0.170481 -0.000312023 0.0
0.124234 -8.7307e-05 0.0
0 0 0.0
0.178143 -0.000738171 0.0
0.181779 -0.00204211 0.0
0.182134 -0.00198805 0.0
0.181484 -0.00227769 0.0
0.181132 -0.00214972 0.0
0.179808 -0.00167974 0.0
0.180182 -0.00173591 0.0
0.180502 -0.00186564 0.0
0.180751 -0.0022852 0.0
0.179266 -0.00124056 0.0
0.178983 -0.000993674 0.0
0.179517 -0.00147524 0.0
0 0 0.0
0.128455 -0.000185989 0.0
0.175172 -0.000733281 0.0
0.182358 -0.00121197 0.0
0.182625 -0.00194443 0.0
0.182937 -0.00167926 0.0
0.123912 -0.000130686 0.0
0.170435 -0.000447172 0.0
0 0 0.0
0.177791 -0.000858926 0.0
0.181916 -0.0023942 0.0
0.182359 -0.00233363 0.0
0.181551 -0.00267014 0.0
0.181118 -0.00252457 0.0
0.17963 -0.00194413 0.0
0.180021 -0.00206045 0.0
0.180678 -0.00268771 0.0
0.180323 -0.00237358 0.0
0.179071 -0.00141716 0.0
0.178717 -0.00119236 0.0
0.179279 -0.00175724 0.0
0 0 0.0
0.129162 -0.000292697 0.0
0.17559 -0.000965145 0.0
0.182846 -0.00149657 0.0
0.183025 -0.00239547 0.0
0.18261 -0.00276657 0.0
0.183351 -0.00201837 0.0
0.123886 -0.000230457 0.0
0.170027 -0.000608747 0.0
0 0 0.0
0.177483 -0.00100706 0.0
0.182127 -0.00297518 0.0
0.181611 -0.00304772 0.0
0.181112 -0.00297169 0.0
0.180608 -0.00303752 0.0
0.179438 -0.00222544 0.0
0.179822 -0.00243846 0.0
0.180174 -0.00279063 0.0
0.178404 -0.00139758 0.0
0.178777 -0.00167363 0.0
0.178995 -0.00206867 0.0
0 0 0.0
0.129618 -0.000562609 0.0
0.176324 -0.00119909 0.0
0.183446 -0.00182723 0.0
0.183325 -0.00274307 0.0
0.18289 -0.0032745 0.0
0.183833 -0.00241383 0.0
0.12355 -0.000327339 0.0
0.169756 -0.000680647 0.0
0 0 0.0
0.178076 -0.00156534 0.0
0.16919 -0.000680794 0.0
0.176945 -0.0011676 0.0
0.182311 -0.00355111 0.0
0.181668 -0.00346282 0.0
0.181085 -0.00376345 0.0
0.180539 -0.00342349 0.0
0.180047 -0.00316293 0.0
0.17917 -0.00260168 0.0
0.179515 -0.0030455 0.0
0.178328 -0.00202429 0.0
0.178717 -0.00236922 0.0
0.182489 -0.00408186 0.0
0 0 0.0
0.130399 -0.000575373 0.0
0.184196 -0.00218531 0.0
0.177083 -0.00145342 0.0
0.183229 -0.00392565 0.0
0.183861 -0.00343239 0.0
0.184372 -0.00290744 0.0
0.123341 -0.000293678 0.0
0 0 0.0
0.178003 -0.00226843 0.0
0.177629 -0.00180839 0.0
0.176617 -0.00134159 0.0
0.122426 -0.000137939 0.0
0.168875 -0.000759158 0.0
0.181757 -0.00410694 0.0
0.181056 -0.00427641 0.0
0.180406 -0.00402071 0.0
0.180294 -0.00454174 0.0
0.179887 -0.00357372 0.0
0.178837 -0.00304005 0.0
0.179214 -0.0035593 0.0
0.178388 -0.00268393 0.0
0.182643 -0.00470436 0.0
0.131014 -0.0006507 0.0
0 0 0.0
0.184782 -0.00254683 0.0
0.177925 -0.00167579 0.0
0.183594 -0.00470764 0.0
0.184262 -0.00395946 0.0
0.18506 -0.00352111 0.0
0 0 0.0
0.17752 -0.00260871 0.0
0.176961 -0.00214712 0.0
0.176008 -0.0015112 0.0
0.12219 -0.000242111 0.0
0.168112 -0.000927682 0.0
0.181849 -0.00521034 0.0
0.181022 -0.00484766 0.0
0.18014 -0.00510952 0.0
0.179539 -0.00445971 0.0
0.178458 -0.00352492 0.0
0.178881 -0.00413996 0.0
0.177806 -0.0032481 0.0
0.182885 -0.00562474 0.0
0 0 0.0
0.132488 -0.000727303 0.0
0.185735 -0.00312258 0.0
0.179155 -0.00200244 0.0
0.185841 -0.00430061 0.0
0.184004 -0.00567683 0.0
0.185005 -0.00501143 0.0
0 0 0.0
0 0 0.0
0.176946 -0.00300678 0.0
0.176376 -0.00247056 0.0
0.175402 -0.00175026 0.0
0.167466 -0.00109898 0.0
0.121683 -0.000449987 0.0
0.181889 -0.00618125 0.0
0.180918 -0.00572156 0.0
0.178555 -0.00465762 0.0
0.179896 -0.00597444 0.0
0.179199 -0.0052072 0.0
0.177993 -0.00408071 0.0
0.177248 -0.00373493 0.0
0.18189 -0.00709598 0.0
0.18307 -0.00673584 0.0
0.133986 -0.000901022 0.0
0.180261 -0.00251267 0.0
0.186824 -0.00392093 0.0
0.186596 -0.00507327 0.0
0.18445 -0.00684052 0.0
0.185509 -0.00587346 0.0
0 0 0.0
0 0 0.0
0.175795 -0.00273011 0.0
0.176112 -0.0035393 0.0
0.166877 -0.00122814 0.0
0.174492 -0.00202958 0.0
0.121094 -0.000438147 0.0
0.180698 -0.00720239 0.0
0.179549 -0.00698224 0.0
0.176617 -0.00427432 0.0
0.17817 -0.00522174 0.0
0.178893 -0.00585706 0.0
0.177237 -0.00492777 0.0
0.181858 -0.00809569 0.0
0.183347 -0.00859484 0.0
0.184893 -0.00830034 0.0
0.135346 -0.00137898 0.0
0.181902 -0.00328007 0.0
0.188484 -0.00518811 0.0
0.187663 -0.00623961 0.0
0.186428 -0.0075816 0.0
0 0 0.0
0 0 0.0
0.174824 -0.00315006 0.0
0.175316 -0.00402138 0.0
0.165824 -0.00135356 0.0
0.173716 -0.00226698 0.0
0.120127 -0.000466578 0.0
0.178522 -0.00656931 0.0
0.179102 -0.00810558 0.0
0.180381 -0.00848341 0.0
0.175871 -0.00486163 0.0
0.177607 -0.00601643 0.0
0.176542 -0.00565479 0.0
0.174412 -0.00453567 0.0
0.181617 -0.0102299 0.0
0 0 0.0
0.18338 -0.010354 0.0
0.187222 -0.0093313 0.0
0.185288 -0.0100359 0.0
0.137828 -0.0017892 0.0
0.189938 -0.00636131 0.0
0.184416 -0.00443399 0.0
0.189052 -0.00822039 0.0
0 0 0.0
0 0 0.0
0 0 0.0
0 0 0.0
0 0 0.0
0.119204 -0.00051069 0.0
0.172889 -0.00252838 0.0
0.173872 -0.00354433 0.0
0.164907 -0.00145419 0.0
0.177932 -0.00756756 0.0
0.178497 -0.00938886 0.0
0.179972 -0.00993191 0.0
0.175876 -0.00627389 0.0
0.17499 -0.00550284 0.0
0.176603 -0.00726853 0.0
0.174148 -0.00607913 0.0
0.173627 -0.00493507 0.0
0.181205 -0.0120904 0.0
0.183307 -0.0123288 0.0
0 0 0.0
-0.000232579 7.29195e-05 0.0
0 0 0.0
0.00012725 -0.00182362 0.0
0.185623 -0.0122123 0.0
0.187887 -0.0109379 0.0
0.141 -0.00232908 0.0
0.19181 -0.00808866 0.0
0.187083 -0.00587144 0.0
0.190527 -0.0104604 0.0
0 0 0.0
0 0 0.0
0 0 0.0
0.000138032 -0.00122047 0.0
8.39007e-05 0.000171794 0.0
0.000108658 -0.000136208 0.0
0 0 0.0
0.118511 -0.000537865 0.0
0.171845 -0.00275245 0.0
0.172816 -0.00395267 0.0
0.163777 -0.00162671 0.0
0.177204 -0.00869386 0.0
0.177711 -0.0108157 0.0
0.179354 -0.0115605 0.0
0.175105 -0.00695373 0.0
0.175887 -0.00807645 0.0
0.17319 -0.00667471 0.0
0.172176 -0.00563818 0.0
0.180597 -0.0141629 0.0
0.182416 -0.0144301 0.0
0.184389 -0.0144355 0.0
0 0 0.0
-6.15894e-05 -0.000154057 0.0
0 0 0.0
0 0 0.0
0.00058291 -0.00606856 0.0
0.000874944 -0.00507694 0.0
0.186422 -0.0143102 0.0
0.188645 -0.0136361 0.0
0.190269 -0.00769405 0.0
0.145021 -0.00320094 0.0
0.194103 -0.0105183 0.0
0.191965 -0.0133858 0.0
0 0 0.0
0.000677146 -0.00161756 0.0
0.000839411 -0.00328097 0.0
0.000716665 -0.00105049 0.0
0.00115727 -0.00112926 0.0
0 0 0.0
0.117513 -0.000592281 0.0
0.170637 -0.00304163 0.0
0.171611 -0.00436462 0.0
0.162548 -0.00180018 0.0
0.176291 -0.00992017 0.0
0.176701 -0.0123564 0.0
0.178488 -0.013379 0.0
0.173635 -0.00814112 0.0
0.175066 -0.00890982 0.0
0.171901 -0.0074131 0.0
0.170286 -0.00479907 0.0
0.17083 -0.00622259 0.0
0.179849 -0.0160058 0.0
0.182588 -0.0165042 0.0
0.185648 -0.0170364 0.0
0 0 0.0
0.00119653 -0.000556124 0.0
0 0 0.0
0 0 0.0
0 0 0.0
0 0 0.0
0.00250902 -0.00720159 0.0
-0.000106479 -0.0021734 0.0
0.000387652 -0.00688272 0.0
0.00184031 -0.0122195 0.0
0.00194833 -0.0094596 0.0
0 0 0.0
-0.00114482 0.00277959 0.0
0.189199 -0.0180048 0.0
0.193038 -0.0163385 0.0
0 0 0.0
0.150966 -0.00488566 0.0
0.194329 -0.0102761 0.0
0.197189 -0.0149131 0.0
0 0 0.0
0 0 0.0
0.00209796 -0.00439414 0.0
0.00251438 -0.00311712 0.0
0.0034033 -0.00219283 0.0
0 0 0.0
0.116498 -0.00066256 0.0
0.169127 -0.00339229 0.0
0.161354 -0.00197984 0.0
0.169085 -0.00512837 0.0
0.175165 -0.0112358 0.0
0.175757 -0.0135919 0.0
0.177329 -0.0153776 0.0
0.172543 -0.00889349 0.0
0.173858 -0.0100075 0.0
0.170461 -0.00815488 0.0
0.169711 -0.00664788 0.0
0.183576 -0.0188504 0.0
0.178832 -0.0179967 0.0
0.181215 -0.0205331 0.0
0.184843 -0.021705 0.0
0.189175 -0.0226387 0.0
0 0 0.0
0.00267751 -0.000727366 0.0
-0.000896337 0.00030697 0.0
-0.00125406 -0.00752073 0.0
-0.000278773 -0.00206139 0.0
0.00418547 -0.0109448 0.0
0.00700597 -0.0105151 0.0
-2.59974e-05 -0.00880809 0.0
0.00148728 -0.0149833 0.0
0.00402214 -0.016744 0.0
-0.00177957 0.00630742 0.0
-0.00408407 -0.00300913 0.0
0.194521 -0.021944 0.0