# vtk DataFile Version 3.0
Mesh NS-CD Problem
ASCII
DATASET UNSTRUCTURED_GRID
POINTS 10839 float
-2 0.3 0.0
-2 0.4 0.0
-2 0.35 0.0
-2 0.45 0.0
-2 0.5 0.0
-2 0.55 0.0
-2 0 0.0
-2 0.05 0.0
-2 0.85 0.0
-2 0.9 0.0
-2 0.1 0.0
-2 0.15 0.0
-2 0.25 0.0
-2 0.2 0.0
-1.96653 0.266667 0.0
-1.96524 0.415385 0.0
-1.96485 0.315 0.0
-1.96348 0.363636 0.0
-1.96414 0.464286 0.0
-2 0.6 0.0
-1.96538 0.584615 0.0
-1.96538 0.538462 0.0
-1.94979 0 0.0
-1.96653 0.0666666 0.0
-1.93306 0.0333333 0.0
-2 0.8 0.0
-2 0.75 0.0
-2 0.7 0.0
-2 0.65 0.0
-1.96249 0.7375 0.0
-1.96666 0.833333 0.0
-2 1 0.0
-2 0.95 0.0
-1.96249 0.8875 0.0
-1.96666 0.933333 0.0
-1.96234 0.1125 0.0
-1.96653 0.166667 0.0
-1.93724 0.225 0.0
-1.92971 0.28 0.0
-1.93048 0.380769 0.0
-1.93048 0.423077 0.0
-1.89958 0.3375 0.0
-1.9292 0.484203 0.0
-1.92117 0.530907 0.0
-1.96363 0.636364 0.0
-1.93076 0.576923 0.0
-1.89958 0 0.0
-1.88703 0.0375 0.0
-1.90963 0.08 0.0
-1.86611 0.0666666 0.0
-1.93749 0.775 0.0
-1.93635 0.672727 0.0
-1.92999 0.72 0.0
-1.93332 0.866667 0.0
-1.92856 0.821429 0.0
-1.94999 1 0.0
-1.92499 0.9625 0.0
-1.92499 0.925 0.0
-1.89998 0.9 0.0
-1.89958 0.125 0.0
-1.92827 0.178571 0.0
-1.89958 0.233333 0.0
-1.89045 0.290909 0.0
-1.86096 0.311538 0.0
-1.89241 0.392857 0.0
-1.89334 0.448489 0.0
-1.85655 0.357143 0.0
-1.89614 0.653846 0.0
-1.89427 0.504121 0.0
-1.8952 0.559753 0.0
-1.89614 0.615385 0.0
-1.84937 0 0.0
-1.83264 0.0333333 0.0
-1.85655 0.107143 0.0
-1.81172 0.075 0.0
-1.89998 0.766667 0.0
-1.89089 0.709091 0.0
-1.87498 0.85 0.0
-1.85998 0.79 0.0
-1.88748 0.8125 0.0
-1.89998 1 0.0
-1.88748 0.9625 0.0
-1.86664 0.933333 0.0
-1.85712 0.892857 0.0
-1.87448 0.15 0.0
-1.86611 0.194444 0.0
-1.83264 0.133333 0.0
-1.83264 0.2625 0.0
-1.82068 0.321429 0.0
-1.85664 0.404762 0.0
-1.85674 0.452381 0.0
-1.85683 0.5 0.0
-1.81184 0.375 0.0
-1.85712 0.642857 0.0
-1.85693 0.547619 0.0
-1.85702 0.595238 0.0
-1.79917 0 0.0
-1.78482 0.0357143 0.0
-1.79917 0.116667 0.0
-1.76569 0.0666666 0.0
-1.85452 0.745455 0.0
-1.82689 0.692308 0.0
-1.81815 0.781818 0.0
-1.82497 0.825 0.0
-1.84997 1 0.0
-1.8333 0.958333 0.0
-1.81247 0.8875 0.0
-1.81247 0.925 0.0
-1.81742 0.218182 0.0
-1.82427 0.175 0.0
-1.77634 0.145455 0.0
-1.79144 0.242308 0.0
-1.78482 0.285714 0.0
-1.77469 0.332653 0.0
-1.81215 0.529762 0.0
-1.81194 0.422619 0.0
-1.81203 0.470238 0.0
-1.76714 0.392857 0.0
-1.81234 0.625 0.0
-1.79732 0.571429 0.0
-1.74896 0 0.0
-1.73222 0.0333333 0.0
-1.75398 0.105 0.0
-1.71883 0.07 0.0
-1.79227 0.730769 0.0
-1.78007 0.679121 0.0
-1.75765 0.769231 0.0
-1.78178 0.818182 0.0
-1.78996 0.86 0.0
-1.79996 1 0.0
-1.78568 0.964286 0.0
-1.76663 0.922222 0.0
-1.76569 0.1875 0.0
-1.73222 0.15 0.0
-1.74896 0.25 0.0
-1.73714 0.304762 0.0
-1.76743 0.537202 0.0
-1.72869 0.343878 0.0
-1.76732 0.485119 0.0
-1.76723 0.440476 0.0
-1.72243 0.410714 0.0
-1.76757 0.607143 0.0
-1.69875 0 0.0
-1.68369 0.035 0.0
-1.69875 0.1125 0.0
-1.66528 0.075 0.0
-1.74341 0.708974 0.0
-1.73324 0.665934 0.0
-1.70441 0.74478 0.0
-1.71423 0.785714 0.0
-1.72303 0.826923 0.0
-1.74541 0.854545 0.0
-1.74541 0.890909 0.0
-1.74996 1 0.0
-1.73745 0.9625 0.0
-1.71359 0.927273 0.0
-1.68716 0.153846 0.0
-1.7131 0.214286 0.0
-1.70725 0.275 0.0
-1.69712 0.321939 0.0
-1.72279 0.589286 0.0
-1.72261 0.5 0.0
-1.7227 0.544643 0.0
-1.6827 0.355102 0.0
-1.67773 0.428571 0.0
-1.70763 0.464286 0.0
-1.70369 0.62449 0.0
-1.64854 0 0.0
-1.63181 0.0375 0.0
-1.64137 0.142857 0.0
-1.61764 0.0769231 0.0
-1.69458 0.703846 0.0
-1.67471 0.657437 0.0
-1.66143 0.727637 0.0
-1.67125 0.768571 0.0
-1.67851 0.821429 0.0
-1.68841 0.861538 0.0
-1.70904 0.890909 0.0
-1.69995 1 0.0
-1.68176 0.963636 0.0
-1.67267 0.927273 0.0
-1.65427 0.187143 0.0
-1.66718 0.231429 0.0
-1.66554 0.3 0.0
-1.67802 0.571429 0.0
-1.67792 0.523809 0.0
-1.6367 0.366327 0.0
-1.63682 0.423469 0.0
-1.62568 0.502976 0.0
-1.6629 0.470238 0.0
-1.65254 0.618367 0.0
-1.6059 0.307143 0.0
-1.59833 0 0.0
-1.58288 0.0384615 0.0
-1.60563 0.169643 0.0
-1.58179 0.112271 0.0
-1.56964 0.0714286 0.0
-1.64574 0.690385 0.0
-1.62827 0.751429 0.0
-1.63371 0.791071 0.0
-1.64279 0.857143 0.0
-1.65378 0.896154 0.0
-1.64994 1 0.0
-1.6363 0.963636 0.0
-1.61916 0.930769 0.0
-1.61345 0.209107 0.0
-1.62126 0.248571 0.0
-1.56989 0.196429 0.0
-1.63324 0.553571 0.0
-1.58846 0.535714 0.0
-1.59408 0.361905 0.0
-1.59161 0.402211 0.0
-1.58832 0.464286 0.0
-1.61504 0.598581 0.0
-1.59683 0.64359 0.0
-1.57899 0.274107 0.0
-1.56176 0.322381 0.0
-1.54812 0 0.0
-1.53378 0.0357143 0.0
-1.54593 0.147619 0.0
-1.53385 0.0732143 0.0
-1.53393 0.110714 0.0
-1.58522 0.704286 0.0
-1.58709 0.745 0.0
-1.58896 0.785714 0.0
-1.60695 0.830357 0.0
-1.60707 0.892857 0.0
-1.59993 1 0.0
-1.58454 0.965385 0.0
-1.57135 0.928571 0.0
-1.55209 0.241071 0.0
-1.5291 0.198214 0.0
-1.56936 0.570918 0.0
-1.54369 0.517857 0.0
-1.5464 0.380952 0.0
-1.54564 0.427721 0.0
-1.54488 0.47449 0.0
-1.55026 0.606122 0.0
-1.54222 0.677143 0.0
-1.52943 0.282857 0.0
-1.52143 0.33619 0.0
-1.49792 0 0.0
-1.49802 0.05 0.0
-1.49822 0.15 0.0
-1.49312 0.1 0.0
-1.5423 0.717143 0.0
-1.54419 0.767857 0.0
-1.54727 0.819048 0.0
-1.57122 0.861905 0.0
-1.53553 0.914286 0.0
-1.54992 1 0.0
-1.53563 0.964286 0.0
-1.49842 0.25 0.0
-1.48831 0.2 0.0
-1.5214 0.558929 0.0
-1.49891 0.5 0.0
-1.49871 0.4 0.0
-1.47631 0.45 0.0
-1.49911 0.6 0.0
-1.49921 0.65 0.0
-1.49931 0.7 0.0
-1.48111 0.35 0.0
-1.48351 0.3 0.0
-1.44771 0 0.0
-1.44782 0.05 0.0
-1.44804 0.15 0.0
-1.44793 0.1 0.0
-1.49941 0.75 0.0
-1.49951 0.8 0.0
-1.49981 0.95 0.0
-1.49961 0.85 0.0
-1.49971 0.9 0.0
-1.49991 1 0.0
-1.44826 0.25 0.0
-1.43815 0.2 0.0
-1.47151 0.55 0.0
-1.44881 0.5 0.0
-1.44859 0.4 0.0
-1.42619 0.45 0.0
-1.44913 0.65 0.0
-1.44902 0.6 0.0
-1.44935 0.75 0.0
-1.44924 0.7 0.0
-1.43972 0.35 0.0
-1.43336 0.3 0.0
-1.3975 0 0.0
-1.39762 0.05 0.0
-1.39786 0.15 0.0
-1.39274 0.1 0.0
-1.44957 0.85 0.0
-1.44946 0.8 0.0
-1.4523 0.95 0.0
-1.44968 0.9 0.0
-1.4499 1 0.0
-1.3981 0.25 0.0
-1.38798 0.2 0.0
-1.42141 0.55 0.0
-1.3987 0.5 0.0
-1.39834 0.35 0.0
-1.37845 0.4 0.0
-1.37607 0.45 0.0
-1.40784 0.65 0.0
-1.39894 0.6 0.0
-1.41185 0.75 0.0
-1.39918 0.7 0.0
-1.38322 0.3 0.0
-1.34729 0 0.0
-1.34492 0.05 0.0
-1.34018 0.15 0.0
-1.34255 0.1 0.0
-1.40707 0.85 0.0
-1.39941 0.8 0.0
-1.39977 0.95 0.0
-1.39965 0.9 0.0
-1.39989 1 0.0
-1.33781 0.2 0.0
-1.33544 0.25 0.0
-1.37131 0.55 0.0
-1.34859 0.5 0.0
-1.33833 0.4 0.0
-1.3307 0.35 0.0
-1.32595 0.45 0.0
-1.34885 0.6 0.0
-1.36655 0.65 0.0
-1.36179 0.75 0.0
-1.34911 0.7 0.0
-1.33307 0.3 0.0
-1.29708 0 0.0
-1.29722 0.05 0.0
-1.2975 0.15 0.0
-1.29236 0.1 0.0
-1.35703 0.85 0.0
-1.34937 0.8 0.0
-1.34988 1 0.0
-1.34962 0.9 0.0
-1.35226 0.95 0.0
-1.28528 0.25 0.0
-1.28764 0.2 0.0
-1.28931 0.35 0.0
-1.32121 0.55 0.0
-1.29848 0.5 0.0
-1.28709 0.45 0.0
-1.2982 0.4 0.0
-1.29876 0.6 0.0
-1.31647 0.65 0.0
-1.29918 0.75 0.0
-1.29904 0.7 0.0
-1.28292 0.3 0.0
-1.24687 0 0.0
-1.24702 0.05 0.0
-1.24717 0.1 0.0
-1.24732 0.15 0.0
-1.29946 0.85 0.0
-1.29932 0.8 0.0
-1.29987 1 0.0
-1.29974 0.95 0.0
-1.30462 0.9 0.0
-1.24762 0.25 0.0
-1.23747 0.2 0.0
-1.24792 0.35 0.0
-1.22807 0.4 0.0
-1.27111 0.55 0.0
-1.24837 0.5 0.0
-1.24822 0.45 0.0
-1.24867 0.6 0.0
-1.26639 0.65 0.0
-1.26167 0.75 0.0
-1.24897 0.7 0.0
-1.23277 0.3 0.0
-1.19667 0 0.0
-1.19683 0.05 0.0
-1.18964 0.15 0.0
-1.19198 0.1 0.0
-1.25695 0.85 0.0
-1.24927 0.8 0.0
-1.25223 0.95 0.0
-1.24987 1 0.0
-1.24957 0.9 0.0
-1.1873 0.2 0.0
-1.18496 0.25 0.0
-1.18028 0.35 0.0
-1.17794 0.4 0.0
-1.1981 0.45 0.0
-1.19842 0.55 0.0
-1.19826 0.5 0.0
-1.19858 0.6 0.0
-1.19874 0.65 0.0
-1.19906 0.75 0.0
-1.1989 0.7 0.0
-1.18262 0.3 0.0
-1.14646 0 0.0
-1.14663 0.05 0.0
-1.1418 0.1 0.0
-1.13713 0.2 0.0
-1.14697 0.15 0.0
-1.20691 0.85 0.0
-1.20926 0.8 0.0
-1.20221 0.95 0.0
-1.19986 1 0.0
-1.20456 0.9 0.0
-1.13997 0.3 0.0
-1.14731 0.25 0.0
-1.13781 0.4 0.0
-1.13014 0.35 0.0
-1.12548 0.45 0.0
-1.14815 0.5 0.0
-1.15962 0.55 0.0
-1.14849 0.6 0.0
-1.15745 0.65 0.0
-1.16155 0.75 0.0
-1.14917 0.8 0.0
-1.14883 0.7 0.0
-1.09625 0 0.0
-1.09661 0.1 0.0
-1.09393 0.05 0.0
-1.09697 0.2 0.0
-1.08929 0.15 0.0
-1.15687 0.85 0.0
-1.14985 1 0.0
-1.15219 0.95 0.0
-1.14951 0.9 0.0
-1.09733 0.3 0.0
-1.08465 0.25 0.0
-1.09769 0.4 0.0
-1.08 0.35 0.0
-1.08661 0.45 0.0
-1.09804 0.5 0.0
-1.12082 0.55 0.0
-1.10916 0.8 0.0
-1.10629 0.7 0.0
-1.0984 0.6 0.0
-1.11616 0.65 0.0
-1.11149 0.75 0.0
-1.04604 0 0.0
-1.04623 0.05 0.0
-1.04642 0.1 0.0
-1.0468 0.2 0.0
-1.03911 0.15 0.0
-1.09948 0.9 0.0
-1.0993 0.85 0.0
-1.09984 1 0.0
-1.09966 0.95 0.0
-1.04718 0.3 0.0
-1.03449 0.25 0.0
-1.04756 0.4 0.0
-1.02986 0.35 0.0
-1.04775 0.45 0.0
-1.04794 0.5 0.0
-1.04813 0.55 0.0
-1.05911 0.8 0.0
-1.04831 0.6 0.0
-1.06376 0.7 0.0
-1.0485 0.65 0.0
-1.04888 0.75 0.0
-0.995833 0 0.0
-0.991231 0.1 0.0
-0.996033 0.05 0.0
-0.986629 0.2 0.0
-0.98893 0.15 0.0
-1.05447 0.9 0.0
-1.04926 0.85 0.0
-1.04983 1 0.0
-1.04964 0.95 0.0
-0.984328 0.25 0.0
-0.99703 0.3 0.0
-0.997429 0.4 0.0
-0.997628 0.45 0.0
-0.979726 0.35 0.0
-0.997827 0.5 0.0
-0.998027 0.55 0.0
-0.998226 0.6 0.0
-0.961416 0.475 0.0
-1.00907 0.8 0.0
-0.998426 0.65 0.0
-0.998625 0.7 0.0
-1.01138 0.75 0.0
-0.945625 0 0.0
-0.946044 0.1 0.0
-0.943334 0.05 0.0
-0.946463 0.2 0.0
-0.938752 0.15 0.0
-1.00444 0.9 0.0
-1.00675 0.85 0.0
-0.999821 1 0.0
-1.00213 0.95 0.0
-0.93417 0.25 0.0
-0.946881 0.3 0.0
-0.9473 0.4 0.0
-0.929588 0.35 0.0
-0.925005 0.45 0.0
-0.960371 0.525 0.0
-0.959325 0.575 0.0
-0.958279 0.625 0.0
-0.922714 0.5 0.0
-0.959017 0.8 0.0
-0.957233 0.675 0.0
-0.952999 0.7125 0.0
-0.948766 0.75 0.0
-0.895417 0 0.0
-0.895855 0.1 0.0
-0.893136 0.05 0.0
-0.896294 0.2 0.0
-0.888573 0.15 0.0
-0.949184 0.85 0.0
-0.954415 0.9 0.0
-0.949812 1 0.0
-0.949603 0.95 0.0
-0.884011 0.25 0.0
-0.896733 0.3 0.0
-0.874887 0.45 0.0
-0.879449 0.35 0.0
-0.897171 0.4 0.0
-0.920423 0.55 0.0
-0.918132 0.6 0.0
-0.915841 0.65 0.0
-0.872606 0.5 0.0
-0.908968 0.8 0.0
-0.91355 0.7 0.0
-0.898707 0.75 0.0
-0.845208 0 0.0
-0.845438 0.05 0.0
-0.845667 0.1 0.0
-0.845896 0.15 0.0
-0.833853 0.25 0.0
-0.846126 0.2 0.0
-0.899146 0.85 0.0
-0.904386 0.9 0.0
-0.899584 0.95 0.0
-0.899804 1 0.0
-0.838062 0.35 0.0
[...]
POINT_DATA 10839
VECTORS Velocity float
0.21 0 0.0
0.24 0 0.0
0.2275 0 0.0
0.2475 0 0.0
0.25 0 0.0
0.2475 0 0.0
0 0 0.0
0.0475 0 0.0
0.1275 0 0.0
0.09 0 0.0
0.09 0 0.0
0.1275 0 0.0
0.1875 0 0.0
0.16 0 0.0
0.195557 -2.41922e-05 0.0
0.242841 -3.30213e-05 0.0
0.215776 -2.88034e-05 0.0
0.231406 -3.24767e-05 0.0
0.248725 -3.51608e-05 0.0
0.24 0 0.0
0.24284 -3.29469e-05 0.0
0.24852 -3.38605e-05 0.0
0 0 0.0
0.0622239 -4.20531e-06 0.0
0.032227 -2.77948e-06 0.0
0.16 0 0.0
0.1875 0 0.0
0.21 0 0.0
0.2275 0 0.0
0.193592 -2.71554e-05 0.0
0.138887 -1.50638e-05 0.0
0 0 0.0
0.0475 0 0.0
0.0998415 -1.04557e-05 0.0
0.0622205 -4.25239e-06 0.0
0.0998462 -1.09259e-05 0.0
0.138891 -1.5199e-05 0.0
0.17438 -3.81314e-05 0.0
0.201606 -5.22585e-05 0.0
0.235787 -6.38327e-05 0.0
0.244085 -6.67991e-05 0.0
0.223602 -8.55908e-05 0.0
0.249751 -6.9796e-05 0.0
0.249044 -7.77813e-05 0.0
0.231404 -3.30045e-05 0.0
0.244081 -6.60068e-05 0.0
0 0 0.0
0.0361081 -5.38394e-06 0.0
0.0736127 -1.50599e-05 0.0
0.0622493 -1.65119e-05 0.0
0.17437 -3.75681e-05 0.0
0.220162 -5.22446e-05 0.0
0.201594 -5.2335e-05 0.0
0.115548 -2.25045e-05 0.0
0.146676 -3.48952e-05 0.0
0 0 0.0
0.0360874 -3.62369e-06 0.0
0.069366 -1.17674e-05 0.0
0.0899834 -2.338e-05 0.0
0.109391 -3.16441e-05 0.0
0.146692 -3.42224e-05 0.0
0.178902 -6.39861e-05 0.0
0.206293 -8.37122e-05 0.0
0.214501 -0.000112878 0.0
0.238527 -0.000100116 0.0
0.24735 -0.000104263 0.0
0.229607 -0.00012749 0.0
0.226323 -8.9939e-05 0.0
0.249983 -0.000104781 0.0
0.246426 -0.000101934 0.0
0.23668 -9.59595e-05 0.0
0 0 0.0
0.0322507 -6.09213e-06 0.0
0.0956968 -3.59601e-05 0.0
0.0694296 -2.71077e-05 0.0
0.178876 -6.30089e-05 0.0
0.206269 -8.43432e-05 0.0
0.127476 -4.85583e-05 0.0
0.165873 -7.97814e-05 0.0
0.152325 -5.70877e-05 0.0
0 0 0.0
0.0360795 -5.2144e-06 0.0
0.0621956 -1.63355e-05 0.0
0.0956297 -3.6636e-05 0.0
0.127525 -4.90301e-05 0.0
0.156661 -7.12791e-05 0.0
0.115601 -5.63286e-05 0.0
0.193627 -0.000117707 0.0
0.218142 -0.000149031 0.0
0.24094 -0.00013586 0.0
0.247737 -0.000140911 0.0
0.25 -0.000142453 0.0
0.234398 -0.000172591 0.0
0.229576 -0.000125726 0.0
0.247727 -0.000140601 0.0
0.240919 -0.00013562 0.0
0 0 0.0
0.0344874 -8.44708e-06 0.0
0.103121 -5.53741e-05 0.0
0.0623035 -2.74761e-05 0.0
0.189727 -9.99789e-05 0.0
0.212988 -0.000139781 0.0
0.170533 -0.000108315 0.0
0.144329 -8.03486e-05 0.0
0 0 0.0
0.0398979 -8.99014e-06 0.0
0.0997858 -5.03089e-05 0.0
0.0693209 -2.6659e-05 0.0
0.170625 -0.000108445 0.0
0.144422 -8.20877e-05 0.0
0.124378 -8.32973e-05 0.0
0.18365 -0.000137195 0.0
0.204132 -0.00016433 0.0
0.222039 -0.000193567 0.0
0.249109 -0.000187172 0.0
0.244027 -0.000182171 0.0
0.24912 -0.000187179 0.0
0.238551 -0.00021993 0.0
0.234353 -0.000171577 0.0
0.244882 -0.000197354 0.0
0 0 0.0
0.0322921 -8.95401e-06 0.0
0.0940748 -5.82517e-05 0.0
0.065218 -3.4803e-05 0.0
0.196696 -0.00015005 0.0
0.217871 -0.000184457 0.0
0.177437 -0.000152365 0.0
0.148689 -0.000106205 0.0
0.120328 -7.42904e-05 0.0
0 0 0.0
0.0343906 -8.52772e-06 0.0
0.0716437 -3.4894e-05 0.0
0.152425 -0.000119174 0.0
0.127615 -0.000103554 0.0
0.187579 -0.000170316 0.0
0.211952 -0.000212263 0.0
0.248605 -0.000232545 0.0
0.225686 -0.000240565 0.0
0.249783 -0.000234234 0.0
0.246474 -0.000230278 0.0
0.242065 -0.0002697 0.0
0.23849 -0.000219314 0.0
0 0 0.0
0.0338746 -1.12361e-05 0.0
0.0999941 -7.79289e-05 0.0
0.0695461 -4.64011e-05 0.0
0.20626 -0.000198696 0.0
0.222404 -0.000231715 0.0
0.189974 -0.000206596 0.0
0.168253 -0.000166761 0.0
0.143003 -0.000127834 0.0
0.124193 -9.42394e-05 0.0
0.0970833 -6.32503e-05 0.0
0 0 0.0
0.0360206 -1.08746e-05 0.0
0.0673142 -3.7428e-05 0.0
0.130336 -0.000125287 0.0
0.168483 -0.000167573 0.0
0.199473 -0.000218727 0.0
0.218379 -0.000256806 0.0
0.241992 -0.000270366 0.0
0.25 -0.000282242 0.0
0.247988 -0.000278947 0.0
0.229082 -0.000289883 0.0
0.244938 -0.000321443 0.0
0.248741 -0.000296249 0.0
0.234445 -0.000277094 0.0
0 0 0.0
0.0362331 -1.45033e-05 0.0
0.122661 -0.000128467 0.0
0.0712308 -5.49461e-05 0.0
0.208349 -0.000243275 0.0
0.225125 -0.000289699 0.0
0.198047 -0.000252717 0.0
0.177724 -0.000209174 0.0
0.146524 -0.00015414 0.0
0.119131 -0.000107588 0.0
0.0970501 -7.18111e-05 0.0
0 0 0.0
0.0349384 -1.21856e-05 0.0
0.0672767 -4.21764e-05 0.0
0.152303 -0.000175343 0.0
0.178019 -0.000214122 0.0
0.210117 -0.000270992 0.0
0.244858 -0.00032137 0.0
0.24942 -0.000330152 0.0
0.232226 -0.000341303 0.0
0.244198 -0.000365963 0.0
0.249988 -0.000390714 0.0
0.249132 -0.000346974 0.0
0.235912 -0.000332176 0.0
0.212965 -0.000331271 0.0
0 0 0.0
0.0371622 -1.71026e-05 0.0
0.141113 -0.000179004 0.0
0.0999602 -0.000108156 0.0
0.0666017 -5.35774e-05 0.0
0.213627 -0.000296292 0.0
0.186605 -0.000257948 0.0
0.165082 -0.000209842 0.0
0.122239 -0.000129158 0.0
0.0928644 -7.88388e-05 0.0
0 0 0.0
0.0349086 -1.36164e-05 0.0
0.0642251 -4.48201e-05 0.0
0.165599 -0.000224378 0.0
0.18697 -0.000263735 0.0
0.158127 -0.000234897 0.0
0.247091 -0.000375871 0.0
0.248691 -0.000432312 0.0
0.231053 -0.000383499 0.0
0.240527 -0.000409312 0.0
0.248758 -0.000431938 0.0
0.240202 -0.000382406 0.0
0.229255 -0.000375813 0.0
0.199184 -0.000324393 0.0
0.218636 -0.000387857 0.0
0 0 0.0
0.0346501 -1.67878e-05 0.0
0.126173 -0.000174072 0.0
0.0681807 -6.05814e-05 0.0
0.0988231 -0.000117854 0.0
0.20808 -0.000339225 0.0
0.189757 -0.000295706 0.0
0.168123 -0.000245386 0.0
0.140617 -0.000177652 0.0
0.0954065 -9.38683e-05 0.0
0 0 0.0
0.0332524 -1.3944e-05 0.0
0.0660539 -5.34028e-05 0.0
0.183226 -0.000306588 0.0
0.159266 -0.000263022 0.0
0.244897 -0.000445827 0.0
0.24966 -0.000489534 0.0
0.235963 -0.000449023 0.0
0.244859 -0.00047463 0.0
0.249378 -0.000488311 0.0
0.238619 -0.000451516 0.0
0.218418 -0.000408112 0.0
0.203107 -0.000378695 0.0
0.223373 -0.000443637 0.0
0 0 0.0
0.0478079 -3.35463e-05 0.0
0.127926 -0.000198579 0.0
0.0904281 -0.000110672 0.0
0.202605 -0.000364822 0.0
0.177963 -0.000300008 0.0
0.147883 -0.000225066 0.0
0.118716 -0.000147469 0.0
0.078024 -7.88052e-05 0.0
0 0 0.0
0.0342304 -1.64375e-05 0.0
0.187836 -0.000363193 0.0
0.160406 -0.00029278 0.0
0.246451 -0.000509686 0.0
0.25 -0.000549251 0.0
0.240141 -0.000518612 0.0
0.247578 -0.000571852 0.0
0.239858 -0.000518249 0.0
0.227289 -0.000479853 0.0
0.209725 -0.000426894 0.0
0.227726 -0.00050362 0.0
0.210293 -0.000444802 0.0
0 0 0.0
0.0478719 -3.74228e-05 0.0
0.128022 -0.000221778 0.0
0.0905112 -0.000121718 0.0
0.187166 -0.000361348 0.0
0.159613 -0.000283199 0.0
0.0471961 -3.28815e-05 0.0
0.127078 -0.000195855 0.0
0.0895849 -0.000108325 0.0
0 0 0.0
0.187913 -0.00040829 0.0
0.160497 -0.0003278 0.0
0.247419 -0.000578427 0.0
0.249999 -0.000619022 0.0
0.240174 -0.000584843 0.0
0.247595 -0.000643043 0.0
0.227242 -0.000540468 0.0
0.239825 -0.00058377 0.0
0.187089 -0.000406093 0.0
0.209662 -0.000480485 0.0
0.227768 -0.000552998 0.0
0.210359 -0.000500121 0.0
0 0 0.0
0.0479424 -4.10432e-05 0.0
0.128129 -0.000246658 0.0
0.090624 -0.000136534 0.0
0.126982 -0.000219554 0.0
0.159525 -0.000317872 0.0
0.0471363 -3.64662e-05 0.0
0.089494 -0.000120426 0.0
0 0 0.0
0.188 -0.00045608 0.0
0.1606 -0.000365512 0.0
0.247401 -0.000649404 0.0
0.249999 -0.000693675 0.0
0.227813 -0.000606732 0.0
0.240226 -0.000684201 0.0
0.247614 -0.000719839 0.0
0.227196 -0.000591862 0.0
0.239788 -0.000654121 0.0
0.187024 -0.000440506 0.0
0.20959 -0.000537686 0.0
0.210433 -0.000559186 0.0
0 0 0.0
0.0480251 -4.56476e-05 0.0
0.128269 -0.000277524 0.0
0.0907389 -0.000150841 0.0
0.126892 -0.000239869 0.0
0.159425 -0.000354045 0.0
0.0470637 -4.05037e-05 0.0
0.0893934 -0.00013296 0.0
0 0 0.0
0.160715 -0.000405548 0.0
0.188124 -0.000520102 0.0
0.247381 -0.000725494 0.0
0.249998 -0.000773826 0.0
0.240261 -0.000747257 0.0
0.227898 -0.000701913 0.0
0.247636 -0.000801298 0.0
0.239746 -0.00072909 0.0
0.227147 -0.000647943 0.0
0.18693 -0.000490101 0.0
0.20951 -0.000598501 0.0
0.210517 -0.000623063 0.0
0 0 0.0
0.0481084 -5.03721e-05 0.0
0.128384 -0.000302663 0.0
0.0908657 -0.000166461 0.0
0.126775 -0.00026548 0.0
0.159313 -0.00039313 0.0
0 0 0.0
0.0892811 -0.000147052 0.0
0.0469905 -4.4502e-05 0.0
0.188237 -0.000578606 0.0
0.160843 -0.000449603 0.0
0.227956 -0.000765446 0.0
0.247358 -0.000808021 0.0
0.249998 -0.000860687 0.0
0.247654 -0.000870036 0.0
0.240299 -0.000813203 0.0
0.239699 -0.000810362 0.0
0.227081 -0.000720609 0.0
0.186795 -0.000557009 0.0
0.209419 -0.000665025 0.0
0.21061 -0.000691334 0.0
0 0 0.0
0.0482031 -5.55493e-05 0.0
0.0909915 -0.00018144 0.0
0.128532 -0.000333971 0.0
0.126624 -0.000297374 0.0
0.159188 -0.000435121 0.0
0 0 0.0
0.0469027 -4.89327e-05 0.0
0.089171 -0.000160029 0.0
0.188331 -0.000624162 0.0
0.160986 -0.000497519 0.0
0.228019 -0.000833696 0.0
0.240371 -0.000939652 0.0
0.247333 -0.000897548 0.0
0.249997 -0.000954319 0.0
0.247675 -0.000942402 0.0
0.239646 -0.000898352 0.0
0.227006 -0.000799478 0.0
0.186704 -0.000601247 0.0
0.209318 -0.000735941 0.0
0.210714 -0.000766206 0.0
0 0 0.0
0.0483087 -6.10167e-05 0.0
0.128723 -0.000374893 0.0
0.0911615 -0.000202753 0.0
0.1265 -0.000323199 0.0
0.15905 -0.000480577 0.0
0.0468151 -5.31246e-05 0.0
0 0 0.0
0.0890226 -0.000177524 0.0
0.161145 -0.000549764 0.0
0.188501 -0.000706747 0.0
0.228137 -0.000955615 0.0
0.240432 -0.00104176 0.0
0.247703 -0.00104432 0.0
0.24729 -0.00103857 0.0
0.249996 -0.00105799 0.0
0.239587 -0.000996165 0.0
0.226892 -0.000914758 0.0
0.186538 -0.000680058 0.0
0.209206 -0.000814436 0.0
0.210829 -0.000847243 0.0
0 0 0.0
0.0484237 -6.69846e-05 0.0
0.091332 -0.0002225 0.0
0.16132 -0.000605228 0.0
0.12888 -0.000406669 0.0
0.126341 -0.000355758 0.0
0.158928 -0.000519696 0.0
0.0467132 -5.86204e-05 0.0
0 0 0.0
0.0888869 -0.000193503 0.0
0.210937 -0.000922462 0.0
0.188618 -0.000762928 0.0
0.240484 -0.00112801 0.0
0.228235 -0.00105903 0.0
0.24775 -0.00120569 0.0
0.249995 -0.0011695 0.0
0.247264 -0.00112266 0.0
0.239522 -0.00110071 0.0
0.226813 -0.000992925 0.0
0.186426 -0.000732111 0.0
0.158726 -0.000584261 0.0
0.209082 -0.000898498 0.0
0 0 0.0
0.091503 -0.000243403 0.0
0.0485592 -7.45474e-05 0.0
0.161474 -0.000656161 0.0
0.129112 -0.000456505 0.0
0.126164 -0.000391747 0.0
0 0 0.0
0.0466017 -6.43415e-05 0.0
0.0887063 -0.000214576 0.0
0.211056 -0.00100233 0.0
0.188827 -0.000865007 0.0
0.240541 -0.00122087 0.0
0.228344 -0.00117089 0.0
0.247776 -0.00130502 0.0
0.249993 -0.00129262 0.0
0.247237 -0.0012151 0.0
0.158576 -0.000628878 0.0
0.208965 -0.000976051 0.0
0.239449 -0.00121398 0.0
0.226727 -0.00107805 0.0
0.186264 -0.000807538 0.0
0 0 0.0
0.0486927 -8.13859e-05 0.0
0.0917073 -0.000267698 0.0
0.161685 -0.000723043 0.0
0.129339 -0.000503676 0.0
0.0885235 -0.000234982 0.0
0.125939 -0.000436925 0.0
0 0 0.0
0.0464735 -7.10229e-05 0.0
0.211207 -0.00110659 0.0
0.189019 -0.000955654 0.0
0.240619 -0.00134817 0.0
0.228464 -0.00129398 0.0
0.247807 -0.00141128 0.0
0.249992 -0.00142856 0.0
0.247177 -0.0013994 0.0
0.158373 -0.000691685 0.0
0.239369 -0.00134043 0.0
0.208839 -0.00105753 0.0
0.226573 -0.00123161 0.0
0.186037 -0.000913988 0.0
0 0 0.0
0.0919583 -0.00029802 0.0
0.0488471 -8.957e-05 0.0
0.161966 -0.000812645 0.0
0.129588 -0.000555549 0.0
0.0883443 -0.000255808 0.0
0.12572 -0.000481496 0.0
0 0 0.0
0.0463379 -7.81166e-05 0.0
0.189228 -0.00105648 0.0
0.211376 -0.00122251 0.0
0.240705 -0.00149046 0.0
0.247849 -0.00155567 0.0
0.228596 -0.00142884 0.0
0.249989 -0.00157427 0.0
0.247132 -0.00154724 0.0
0.23928 -0.00147627 0.0
0.249559 -0.00168824 0.0
0.158147 -0.000760664 0.0
0.226441 -0.00135864 0.0
0.208622 -0.00119917 0.0
0.185885 -0.00098243 0.0
0 0 0.0
0.0921882 -0.000325808 0.0
0.0490283 -9.97696e-05 0.0
0.162176 -0.000880431 0.0
0.129863 -0.000612803 0.0
0.0881268 -0.000280965 0.0
0.125517 -0.000522301 0.0
0 0 0.0
0.0461978 -8.55306e-05 0.0
0.189461 -0.00116681 0.0
0.211562 -0.00135071 0.0
0.240795 -0.00164386 0.0
0.228743 -0.00158009 0.0
0.247915 -0.00179669 0.0
0.249162 -0.00168735 0.0
0.243769 -0.0016371 0.0
0.233386 -0.00153742 0.0
0.249983 -0.00182646 0.0
0.157901 -0.000836453 0.0
0.218018 -0.00139233 0.0
0.203211 -0.00125945 0.0
0.18561 -0.00110585 0.0
0 0 0.0
0.0924637 -0.000359209 0.0
0.0492163 -0.000109324 0.0
0.16246 -0.000972866 0.0
0.130168 -0.000677027 0.0
0.125217 -0.000582713 0.0
0.0878868 -0.000309209 0.0
0 0 0.0
0.0460284 -9.38154e-05 0.0
0.189719 -0.00129006 0.0
0.211768 -0.00149287 0.0
0.247963 -0.00198115 0.0
0.228904 -0.00174587 0.0
0.240902 -0.00181666 0.0
0.247047 -0.00180256 0.0
0.239115 -0.00172472 0.0
0.226193 -0.00159446 0.0
0.249974 -0.00201442 0.0
0.157627 -0.000921105 0.0
0.208293 -0.00141272 0.0
0.18536 -0.00121751 0.0
0 0 0.0
0.0494142 -0.000119751 0.0
0.0927691 -0.000397239 0.0
0.130453 -0.000736688 0.0
0.190002 -0.00142497 0.0
0.162777 -0.00107568 0.0
0.124926 -0.000640982 0.0
0.0876225 -0.000340588 0.0
0.0458481 -0.000103331 0.0
0 0 0.0
0.22905 -0.00189746 0.0
0.211996 -0.00165285 0.0
0.248007 -0.00214109 0.0
0.241013 -0.00200988 0.0
0.226021 -0.00175428 0.0
0.246982 -0.00198616 0.0
0.238993 -0.0018994 0.0
0.249967 -0.00222167 0.0
0.18509 -0.00133764 0.0
0.157266 -0.00103022 0.0
0.208 -0.00159863 0.0
0 0 0.0
0.0496437 -0.00013286 0.0
0.0931442 -0.000443663 0.0
0.130821 -0.00081389 0.0
0.190235 -0.00154154 0.0
0.1632 -0.00122003 0.0
0.124608 -0.000704047 0.0
0.0873036 -0.000378436 0.0
0.0456519 -0.000113403 0.0
0 0 0.0
0.124256 -0.00077535 0.0
0.229206 -0.00205681 0.0
0.212326 -0.00189132 0.0
0.241187 -0.00231602 0.0
0.248052 -0.00231043 0.0
0.225761 -0.00199375 0.0
0.238863 -0.00208929 0.0
0.246911 -0.00219015 0.0
0.249952 -0.0024504 0.0
0.184792 -0.00146927 0.0
0.156929 -0.00113559 0.0
0.207749 -0.00176057 0.0
0 0 0.0
0.0498972 -0.000146776 0.0
0.0935248 -0.000492079 0.0
0.13123 -0.000903105 0.0
0.190577 -0.00170667 0.0
0.163601 -0.0013557 0.0
0.0454315 -0.000126215 0.0
0.0869784 -0.000417877 0.0
0 0 0.0
0.123934 -0.00083829 0.0
0.229413 -0.00228151 0.0
0.212614 -0.00209906 0.0
0.241326 -0.00256196 0.0
0.248108 -0.00255532 0.0
0.225579 -0.00215756 0.0
0.238718 -0.00229771 0.0
0.249937 -0.00270435 0.0
0.24679 -0.00252073 0.0
0.184547 -0.00157301 0.0
0.156561 -0.00124725 0.0
0.207471 -0.00193181 0.0
0 0 0.0
0.0501759 -0.000162208 0.0
0.0939451 -0.000545557 0.0
0.131754 -0.00101843 0.0
0.19105 -0.00194518 0.0
0.212928 -0.00233434 0.0
0.16404 -0.00151067 0.0
0.0452055 -0.000138354 0.0
0.0866252 -0.000459579 0.0
0 0 0.0
0.12352 -0.000919785 0.0
0.229721 -0.00261815 0.0
0.241444 -0.00278405 0.0
0.24817 -0.00282583 0.0
0.249917 -0.00291456 0.0
0.225386 -0.0023287 0.0
0.238547 -0.00253045 0.0
0.24669 -0.00277625 0.0
0.156158 -0.00136882 0.0
0.184196 -0.00172485 0.0
0.207164 -0.00211786 0.0
0 0 0.0
0.0505074 -0.000182156 0.0
0.0944184 -0.000610693 0.0
0.132271 -0.00113995 0.0
0.191371 -0.00211302 0.0
0.213271 -0.0025942 0.0
0.164532 -0.00168686 0.0
0.0449425 -0.00015186 0.0
0.0862365 -0.000504848 0.0
0 0 0.0
0.155811 -0.00146496 0.0
0.0858134 -0.000550964 0.0
0.122998 -0.00101884 0.0
0.229976 -0.00292195 0.0
0.241565 -0.00301497 0.0
0.248258 -0.00327026 0.0
0.249899 -0.00313507 0.0
0.246604 -0.00299372 0.0
0.225127 -0.00255255 0.0
0.238285 -0.00288866 0.0
0.183707 -0.00192727 0.0
0.206879 -0.00229298 0.0
0.230204 -0.00318396 0.0
0 0 0.0
0.0508595 -0.000204181 0.0
0.132849 -0.0012813 0.0
0.0949476 -0.000687724 0.0
0.213652 -0.0028985 0.0
0.191951 -0.00242597 0.0
0.165078 -0.00188965 0.0
0.0446413 -0.000166728 0.0
0 0 0.0
0.183382 -0.00206172 0.0
0.155338 -0.00159903 0.0
0.122495 -0.00111298 0.0
0.044321 -0.000184069 0.0
0.0853484 -0.000602378 0.0
0.241732 -0.00334687 0.0
0.248304 -0.00354095 0.0
0.249856 -0.00346031 0.0
0.24982 -0.00373053 0.0
0.246503 -0.00322382 0.0
0.224832 -0.0027992 0.0
0.238055 -0.00317346 0.0
0.206567 -0.00246761 0.0
0.230436 -0.00347681 0.0
0.0512388 -0.000230353 0.0
0 0 0.0
0.133393 -0.00141701 0.0
0.0955401 -0.000775836 0.0
0.214065 -0.00324042 0.0
0.192342 -0.00264611 0.0
0.165687 -0.00212675 0.0
0 0 0.0
0.182918 -0.00223937 0.0
0.154714 -0.001763 0.0
0.122039 -0.00118728 0.0
0.0439951 -0.000199411 0.0
0.0848468 -0.000653752 0.0
0.24197 -0.00388057 0.0
0.24835 -0.00382586 0.0
0.249768 -0.00401425 0.0
0.246287 -0.00369378 0.0
0.224509 -0.00305962 0.0
0.237807 -0.00348031 0.0
0.206037 -0.0027644 0.0
0.230753 -0.00388268 0.0
0 0 0.0
0.0516858 -0.000263452 0.0
0.134104 -0.00160612 0.0
0.096147 -0.000872631 0.0
0.166362 -0.0023978 0.0
0.214516 -0.0036354 0.0
0.193053 -0.00305873 0.0
0 0 0.0
0 0 0.0
0.182401 -0.00243075 0.0
0.154139 -0.00190901 0.0
0.121457 -0.00128287 0.0
0.0843058 -0.000705431 0.0
0.0436234 -0.000214902 0.0
0.242149 -0.00431632 0.0
0.248394 -0.00424058 0.0
0.237577 -0.0037436 0.0
0.249687 -0.00442751 0.0
0.246095 -0.00406662 0.0
0.224141 -0.00334441 0.0
0.205572 -0.00300478 0.0
0.24229 -0.00470838 0.0
0.231072 -0.00434104 0.0
0.0521914 -0.000299517 0.0
0.0968976 -0.000992096 0.0
0.134909 -0.00183324 0.0
0.166962 -0.00265668 0.0
0.215009 -0.0040814 0.0
0.193523 -0.00336069 0.0
0 0 0.0
0 0 0.0
0.153646 -0.00201692 0.0
0.181689 -0.00267047 0.0
0.0837842 -0.000747989 0.0
0.120733 -0.001389 0.0
0.0432208 -0.000232333 0.0
0.248447 -0.00490595 0.0
0.249568 -0.00488887 0.0
0.205061 -0.00325683 0.0
0.23732 -0.00401704 0.0
0.245929 -0.00437898 0.0
0.223573 -0.00375164 0.0
0.242436 -0.00511945 0.0
0.231552 -0.00505627 0.0
0.215533 -0.00459646 0.0
0.0528106 -0.00034692 0.0
0.0977589 -0.00114533 0.0
0.135959 -0.00214432 0.0
0.167787 -0.00301612 0.0
0.194382 -0.00392609 0.0
0 0 0.0
0 0 0.0
0.152842 -0.00218458 0.0
0.181049 -0.00287579 0.0
0.0831088 -0.000799986 0.0
0.120053 -0.00147729 0.0
0.0427753 -0.000247525 0.0
0.245735 -0.00471129 0.0
0.249421 -0.00538477 0.0
0.248444 -0.00544727 0.0
0.20449 -0.00351866 0.0
0.236961 -0.00439146 0.0
0.223084 -0.00408802 0.0
0.180348 -0.00307964 0.0
0.242663 -0.00595124 0.0
0 0 0.0
0.231898 -0.00568537 0.0
0.195145 -0.00446856 0.0
0.216091 -0.00517896 0.0
0.0534682 -0.000403884 0.0
0.136849 -0.00242807 0.0
0.0988615 -0.00135772 0.0
0.168893 -0.00355742 0.0
0 0 0.0
0 0 0.0
0 0 0.0
0 0 0.0
0 0 0.0
0.0423473 -0.000259287 0.0
0.119323 -0.00156395 0.0
0.152104 -0.0023261 0.0
0.0825187 -0.000841353 0.0
0.245439 -0.00515977 0.0
0.249222 -0.00593457 0.0
0.248424 -0.00604301 0.0
0.222631 -0.00436026 0.0
0.203847 -0.00379044 0.0
0.236351 -0.00495388 0.0
0.203247 -0.00402543 0.0
0.179772 -0.00322789 0.0
0.242795 -0.0066457 0.0
0.232261 -0.00637554 0.0
0 0 0.0
9.21843e-05 -4.10531e-05 0.0
0 0 0.0
-0.000259777 0.00124163 0.0
0.216689 -0.00585685 0.0
0.195768 -0.00492548 0.0
0.0543084 -0.000481696 0.0
0.138015 -0.0028121 0.0
0.100027 -0.00159497 0.0
0.169946 -0.00409978 0.0
0 0 0.0
0 0 0.0
0 0 0.0
-0.000182248 0.000576114 0.0
6.60703e-06 -0.000157485 0.0
9.06132e-05 -0.00010764 0.0
0 0 0.0
0.0418693 -0.000273309 0.0
0.118672 -0.00162904 0.0
0.151307 -0.00245971 0.0
0.0817665 -0.000886505 0.0
0.245092 -0.00565739 0.0
0.248967 -0.00653356 0.0
0.248358 -0.00669495 0.0
0.222129 -0.0046531 0.0
0.235946 -0.00531258 0.0
0.202584 -0.00425902 0.0
0.178726 -0.00347469 0.0
0.24291 -0.00740817 0.0
0.235639 -0.00718814 0.0
0.225525 -0.00681048 0.0
0 0 0.0
0.000173937 -2.32165e-05 0.0
0 0 0.0
0 0 0.0
-0.000948562 0.0030463 0.0
-0.000859372 0.00185139 0.0
0.21254 -0.00631313 0.0
0.196642 -0.00562673 0.0
0.101244 -0.00185669 0.0
0.0552162 -0.000579908 0.0
0.139338 -0.00328533 0.0
0.171097 -0.0047388 0.0
0 0 0.0
-0.000244567 0.000160962 0.0
-0.000540698 0.000819203 0.0
-9.43516e-05 -1.78071e-05 0.0
6.3487e-07 5.32089e-05 0.0
0 0 0.0
0.0413714 -0.000285827 0.0
0.117862 -0.00170115 0.0
0.150452 -0.00258009 0.0
0.0810443 -0.000923842 0.0
0.244669 -0.00618866 0.0
0.248648 -0.0071825 0.0
0.248237 -0.00741181 0.0
0.221188 -0.00515943 0.0
0.235484 -0.00567448 0.0
0.201717 -0.00454871 0.0
0.149529 -0.00270762 0.0
0.177789 -0.00367783 0.0
0.242967 -0.0080703 0.0
0.232835 -0.00773268 0.0
0.21775 -0.00725487 0.0
0 0 0.0
8.38429e-05 6.06025e-05 0.0
0 0 0.0
0 0 0.0
0 0 0.0
0 0 0.0
-0.00149856 0.00200164 0.0
-0.000286045 0.00275445 0.0
-0.00100714 0.00411643 0.0
-0.00230233 0.00548996 0.0
-0.00185517 0.00357206 0.0
0 0 0.0
-9.27427e-05 0.00464523 0.0
0.197809 -0.00668722 0.0
0.172101 -0.00535717 0.0
0 0 0.0
0.056415 -0.000721396 0.0
0.102803 -0.00222838 0.0
0.141081 -0.00400362 0.0
0 0 0.0
0 0 0.0
-0.00081257 0.000836536 0.0
-0.000524808 0.000438352 0.0