# vtk DataFile Version 3.0
Mesh NS-CD Problem
ASCII
DATASET UNSTRUCTURED_GRID
POINTS 10839 float
-2 0.3 0.0
-2 0.4 0.0
-2 0.35 0.0
-2 0.45 0.0
-2 0.5 0.0
-2 0.55 0.0
-2 0 0.0
-2 0.05 0.0
-2 0.85 0.0
-2 0.9 0.0
-2 0.1 0.0
-2 0.15 0.0
-2 0.25 0.0
-2 0.2 0.0
-1.96653 0.266667 0.0
-1.96524 0.415385 0.0
-1.96485 0.315 0.0
-1.96348 0.363636 0.0
-1.96414 0.464286 0.0
-2 0.6 0.0
-1.96538 0.584615 0.0
-1.96538 0.538462 0.0
-1.94979 0 0.0
-1.96653 0.0666666 0.0
-1.93306 0.0333333 0.0
-2 0.8 0.0
-2 0.75 0.0
-2 0.7 0.0
-2 0.65 0.0
-1.96249 0.7375 0.0
-1.96666 0.833333 0.0
-2 1 0.0
-2 0.95 0.0
-1.96249 0.8875 0.0
-1.96666 0.933333 0.0
-1.96234 0.1125 0.0
-1.96653 0.166667 0.0
-1.93724 0.225 0.0
-1.92971 0.28 0.0
-1.93048 0.380769 0.0
-1.93048 0.423077 0.0
-1.89958 0.3375 0.0
-1.9292 0.484203 0.0
-1.92117 0.530907 0.0
-1.96363 0.636364 0.0
-1.93076 0.576923 0.0
-1.89958 0 0.0
-1.88703 0.0375 0.0
-1.90963 0.08 0.0
-1.86611 0.0666666 0.0
-1.93749 0.775 0.0
-1.93635 0.672727 0.0
-1.92999 0.72 0.0
-1.93332 0.866667 0.0
-1.92856 0.821429 0.0
-1.94999 1 0.0
-1.92499 0.9625 0.0
-1.92499 0.925 0.0
-1.89998 0.9 0.0
-1.89958 0.125 0.0
-1.92827 0.178571 0.0
-1.89958 0.233333 0.0
-1.89045 0.290909 0.0
-1.86096 0.311538 0.0
-1.89241 0.392857 0.0
-1.89334 0.448489 0.0
-1.85655 0.357143 0.0
-1.89614 0.653846 0.0
-1.89427 0.504121 0.0
-1.8952 0.559753 0.0
-1.89614 0.615385 0.0
-1.84937 0 0.0
-1.83264 0.0333333 0.0
-1.85655 0.107143 0.0
-1.81172 0.075 0.0
-1.89998 0.766667 0.0
-1.89089 0.709091 0.0
-1.87498 0.85 0.0
-1.85998 0.79 0.0
-1.88748 0.8125 0.0
-1.89998 1 0.0
-1.88748 0.9625 0.0
-1.86664 0.933333 0.0
-1.85712 0.892857 0.0
-1.87448 0.15 0.0
-1.86611 0.194444 0.0
-1.83264 0.133333 0.0
-1.83264 0.2625 0.0
-1.82068 0.321429 0.0
-1.85664 0.404762 0.0
-1.85674 0.452381 0.0
-1.85683 0.5 0.0
-1.81184 0.375 0.0
-1.85712 0.642857 0.0
-1.85693 0.547619 0.0
-1.85702 0.595238 0.0
-1.79917 0 0.0
-1.78482 0.0357143 0.0
-1.79917 0.116667 0.0
-1.76569 0.0666666 0.0
-1.85452 0.745455 0.0
-1.82689 0.692308 0.0
-1.81815 0.781818 0.0
-1.82497 0.825 0.0
-1.84997 1 0.0
-1.8333 0.958333 0.0
-1.81247 0.8875 0.0
-1.81247 0.925 0.0
-1.81742 0.218182 0.0
-1.82427 0.175 0.0
-1.77634 0.145455 0.0
-1.79144 0.242308 0.0
-1.78482 0.285714 0.0
-1.77469 0.332653 0.0
-1.81215 0.529762 0.0
-1.81194 0.422619 0.0
-1.81203 0.470238 0.0
-1.76714 0.392857 0.0
-1.81234 0.625 0.0
-1.79732 0.571429 0.0
-1.74896 0 0.0
-1.73222 0.0333333 0.0
-1.75398 0.105 0.0
-1.71883 0.07 0.0
-1.79227 0.730769 0.0
-1.78007 0.679121 0.0
-1.75765 0.769231 0.0
-1.78178 0.818182 0.0
-1.78996 0.86 0.0
-1.79996 1 0.0
-1.78568 0.964286 0.0
-1.76663 0.922222 0.0
-1.76569 0.1875 0.0
-1.73222 0.15 0.0
-1.74896 0.25 0.0
-1.73714 0.304762 0.0
-1.76743 0.537202 0.0
-1.72869 0.343878 0.0
-1.76732 0.485119 0.0
-1.76723 0.440476 0.0
-1.72243 0.410714 0.0
-1.76757 0.607143 0.0
-1.69875 0 0.0
-1.68369 0.035 0.0
-1.69875 0.1125 0.0
-1.66528 0.075 0.0
-1.74341 0.708974 0.0
-1.73324 0.665934 0.0
-1.70441 0.74478 0.0
-1.71423 0.785714 0.0
-1.72303 0.826923 0.0
-1.74541 0.854545 0.0
-1.74541 0.890909 0.0
-1.74996 1 0.0
-1.73745 0.9625 0.0
-1.71359 0.927273 0.0
-1.68716 0.153846 0.0
-1.7131 0.214286 0.0
-1.70725 0.275 0.0
-1.69712 0.321939 0.0
-1.72279 0.589286 0.0
-1.72261 0.5 0.0
-1.7227 0.544643 0.0
-1.6827 0.355102 0.0
-1.67773 0.428571 0.0
-1.70763 0.464286 0.0
-1.70369 0.62449 0.0
-1.64854 0 0.0
-1.63181 0.0375 0.0
-1.64137 0.142857 0.0
-1.61764 0.0769231 0.0
-1.69458 0.703846 0.0
-1.67471 0.657437 0.0
-1.66143 0.727637 0.0
-1.67125 0.768571 0.0
-1.67851 0.821429 0.0
-1.68841 0.861538 0.0
-1.70904 0.890909 0.0
-1.69995 1 0.0
-1.68176 0.963636 0.0
-1.67267 0.927273 0.0
-1.65427 0.187143 0.0
-1.66718 0.231429 0.0
-1.66554 0.3 0.0
-1.67802 0.571429 0.0
-1.67792 0.523809 0.0
-1.6367 0.366327 0.0
-1.63682 0.423469 0.0
-1.62568 0.502976 0.0
-1.6629 0.470238 0.0
-1.65254 0.618367 0.0
-1.6059 0.307143 0.0
-1.59833 0 0.0
-1.58288 0.0384615 0.0
-1.60563 0.169643 0.0
-1.58179 0.112271 0.0
-1.56964 0.0714286 0.0
-1.64574 0.690385 0.0
-1.62827 0.751429 0.0
-1.63371 0.791071 0.0
-1.64279 0.857143 0.0
-1.65378 0.896154 0.0
-1.64994 1 0.0
-1.6363 0.963636 0.0
-1.61916 0.930769 0.0
-1.61345 0.209107 0.0
-1.62126 0.248571 0.0
-1.56989 0.196429 0.0
-1.63324 0.553571 0.0
-1.58846 0.535714 0.0
-1.59408 0.361905 0.0
-1.59161 0.402211 0.0
-1.58832 0.464286 0.0
-1.61504 0.598581 0.0
-1.59683 0.64359 0.0
-1.57899 0.274107 0.0
-1.56176 0.322381 0.0
-1.54812 0 0.0
-1.53378 0.0357143 0.0
-1.54593 0.147619 0.0
-1.53385 0.0732143 0.0
-1.53393 0.110714 0.0
-1.58522 0.704286 0.0
-1.58709 0.745 0.0
-1.58896 0.785714 0.0
-1.60695 0.830357 0.0
-1.60707 0.892857 0.0
-1.59993 1 0.0
-1.58454 0.965385 0.0
-1.57135 0.928571 0.0
-1.55209 0.241071 0.0
-1.5291 0.198214 0.0
-1.56936 0.570918 0.0
-1.54369 0.517857 0.0
-1.5464 0.380952 0.0
-1.54564 0.427721 0.0
-1.54488 0.47449 0.0
-1.55026 0.606122 0.0
-1.54222 0.677143 0.0
-1.52943 0.282857 0.0
-1.52143 0.33619 0.0
-1.49792 0 0.0
-1.49802 0.05 0.0
-1.49822 0.15 0.0
-1.49312 0.1 0.0
-1.5423 0.717143 0.0
-1.54419 0.767857 0.0
-1.54727 0.819048 0.0
-1.57122 0.861905 0.0
-1.53553 0.914286 0.0
-1.54992 1 0.0
-1.53563 0.964286 0.0
-1.49842 0.25 0.0
-1.48831 0.2 0.0
-1.5214 0.558929 0.0
-1.49891 0.5 0.0
-1.49871 0.4 0.0
-1.47631 0.45 0.0
-1.49911 0.6 0.0
-1.49921 0.65 0.0
-1.49931 0.7 0.0
-1.48111 0.35 0.0
-1.48351 0.3 0.0
-1.44771 0 0.0
-1.44782 0.05 0.0
-1.44804 0.15 0.0
-1.44793 0.1 0.0
-1.49941 0.75 0.0
-1.49951 0.8 0.0
-1.49981 0.95 0.0
-1.49961 0.85 0.0
-1.49971 0.9 0.0
-1.49991 1 0.0
-1.44826 0.25 0.0
-1.43815 0.2 0.0
-1.47151 0.55 0.0
-1.44881 0.5 0.0
-1.44859 0.4 0.0
-1.42619 0.45 0.0
-1.44913 0.65 0.0
-1.44902 0.6 0.0
-1.44935 0.75 0.0
-1.44924 0.7 0.0
-1.43972 0.35 0.0
-1.43336 0.3 0.0
-1.3975 0 0.0
-1.39762 0.05 0.0
-1.39786 0.15 0.0
-1.39274 0.1 0.0
-1.44957 0.85 0.0
-1.44946 0.8 0.0
-1.4523 0.95 0.0
-1.44968 0.9 0.0
-1.4499 1 0.0
-1.3981 0.25 0.0
-1.38798 0.2 0.0
-1.42141 0.55 0.0
-1.3987 0.5 0.0
-1.39834 0.35 0.0
-1.37845 0.4 0.0
-1.37607 0.45 0.0
-1.40784 0.65 0.0
-1.39894 0.6 0.0
-1.41185 0.75 0.0
-1.39918 0.7 0.0
-1.38322 0.3 0.0
-1.34729 0 0.0
-1.34492 0.05 0.0
-1.34018 0.15 0.0
-1.34255 0.1 0.0
-1.40707 0.85 0.0
-1.39941 0.8 0.0
-1.39977 0.95 0.0
-1.39965 0.9 0.0
-1.39989 1 0.0
-1.33781 0.2 0.0
-1.33544 0.25 0.0
-1.37131 0.55 0.0
-1.34859 0.5 0.0
-1.33833 0.4 0.0
-1.3307 0.35 0.0
-1.32595 0.45 0.0
-1.34885 0.6 0.0
-1.36655 0.65 0.0
-1.36179 0.75 0.0
-1.34911 0.7 0.0
-1.33307 0.3 0.0
-1.29708 0 0.0
-1.29722 0.05 0.0
-1.2975 0.15 0.0
-1.29236 0.1 0.0
-1.35703 0.85 0.0
-1.34937 0.8 0.0
-1.34988 1 0.0
-1.34962 0.9 0.0
-1.35226 0.95 0.0
-1.28528 0.25 0.0
-1.28764 0.2 0.0
-1.28931 0.35 0.0
-1.32121 0.55 0.0
-1.29848 0.5 0.0
-1.28709 0.45 0.0
-1.2982 0.4 0.0
-1.29876 0.6 0.0
-1.31647 0.65 0.0
-1.29918 0.75 0.0
-1.29904 0.7 0.0
-1.28292 0.3 0.0
-1.24687 0 0.0
-1.24702 0.05 0.0
-1.24717 0.1 0.0
-1.24732 0.15 0.0
-1.29946 0.85 0.0
-1.29932 0.8 0.0
-1.29987 1 0.0
-1.29974 0.95 0.0
-1.30462 0.9 0.0
-1.24762 0.25 0.0
-1.23747 0.2 0.0
-1.24792 0.35 0.0
-1.22807 0.4 0.0
-1.27111 0.55 0.0
-1.24837 0.5 0.0
-1.24822 0.45 0.0
-1.24867 0.6 0.0
-1.26639 0.65 0.0
-1.26167 0.75 0.0
-1.24897 0.7 0.0
-1.23277 0.3 0.0
-1.19667 0 0.0
-1.19683 0.05 0.0
-1.18964 0.15 0.0
-1.19198 0.1 0.0
-1.25695 0.85 0.0
-1.24927 0.8 0.0
-1.25223 0.95 0.0
-1.24987 1 0.0
-1.24957 0.9 0.0
-1.1873 0.2 0.0
-1.18496 0.25 0.0
-1.18028 0.35 0.0
-1.17794 0.4 0.0
-1.1981 0.45 0.0
-1.19842 0.55 0.0
-1.19826 0.5 0.0
-1.19858 0.6 0.0
-1.19874 0.65 0.0
-1.19906 0.75 0.0
-1.1989 0.7 0.0
-1.18262 0.3 0.0
-1.14646 0 0.0
-1.14663 0.05 0.0
-1.1418 0.1 0.0
-1.13713 0.2 0.0
-1.14697 0.15 0.0
-1.20691 0.85 0.0
-1.20926 0.8 0.0
-1.20221 0.95 0.0
-1.19986 1 0.0
-1.20456 0.9 0.0
-1.13997 0.3 0.0
-1.14731 0.25 0.0
-1.13781 0.4 0.0
-1.13014 0.35 0.0
-1.12548 0.45 0.0
-1.14815 0.5 0.0
-1.15962 0.55 0.0
-1.14849 0.6 0.0
-1.15745 0.65 0.0
-1.16155 0.75 0.0
-1.14917 0.8 0.0
-1.14883 0.7 0.0
-1.09625 0 0.0
-1.09661 0.1 0.0
-1.09393 0.05 0.0
-1.09697 0.2 0.0
-1.08929 0.15 0.0
-1.15687 0.85 0.0
-1.14985 1 0.0
-1.15219 0.95 0.0
-1.14951 0.9 0.0
-1.09733 0.3 0.0
-1.08465 0.25 0.0
-1.09769 0.4 0.0
-1.08 0.35 0.0
-1.08661 0.45 0.0
-1.09804 0.5 0.0
-1.12082 0.55 0.0
-1.10916 0.8 0.0
-1.10629 0.7 0.0
-1.0984 0.6 0.0
-1.11616 0.65 0.0
-1.11149 0.75 0.0
-1.04604 0 0.0
-1.04623 0.05 0.0
-1.04642 0.1 0.0
-1.0468 0.2 0.0
-1.03911 0.15 0.0
-1.09948 0.9 0.0
-1.0993 0.85 0.0
-1.09984 1 0.0
-1.09966 0.95 0.0
-1.04718 0.3 0.0
-1.03449 0.25 0.0
-1.04756 0.4 0.0
-1.02986 0.35 0.0
-1.04775 0.45 0.0
-1.04794 0.5 0.0
-1.04813 0.55 0.0
-1.05911 0.8 0.0
-1.04831 0.6 0.0
-1.06376 0.7 0.0
-1.0485 0.65 0.0
-1.04888 0.75 0.0
-0.995833 0 0.0
-0.991231 0.1 0.0
-0.996033 0.05 0.0
-0.986629 0.2 0.0
-0.98893 0.15 0.0
-1.05447 0.9 0.0
-1.04926 0.85 0.0
-1.04983 1 0.0
-1.04964 0.95 0.0
-0.984328 0.25 0.0
-0.99703 0.3 0.0
-0.997429 0.4 0.0
-0.997628 0.45 0.0
-0.979726 0.35 0.0
-0.997827 0.5 0.0
-0.998027 0.55 0.0
-0.998226 0.6 0.0
-0.961416 0.475 0.0
-1.00907 0.8 0.0
-0.998426 0.65 0.0
-0.998625 0.7 0.0
-1.01138 0.75 0.0
-0.945625 0 0.0
-0.946044 0.1 0.0
-0.943334 0.05 0.0
-0.946463 0.2 0.0
-0.938752 0.15 0.0
-1.00444 0.9 0.0
-1.00675 0.85 0.0
-0.999821 1 0.0
-1.00213 0.95 0.0
-0.93417 0.25 0.0
-0.946881 0.3 0.0
-0.9473 0.4 0.0
-0.929588 0.35 0.0
-0.925005 0.45 0.0
-0.960371 0.525 0.0
-0.959325 0.575 0.0
-0.958279 0.625 0.0
-0.922714 0.5 0.0
-0.959017 0.8 0.0
-0.957233 0.675 0.0
-0.952999 0.7125 0.0
-0.948766 0.75 0.0
-0.895417 0 0.0
-0.895855 0.1 0.0
-0.893136 0.05 0.0
-0.896294 0.2 0.0
-0.888573 0.15 0.0
-0.949184 0.85 0.0
-0.954415 0.9 0.0
-0.949812 1 0.0
-0.949603 0.95 0.0
-0.884011 0.25 0.0
-0.896733 0.3 0.0
-0.874887 0.45 0.0
-0.879449 0.35 0.0
-0.897171 0.4 0.0
-0.920423 0.55 0.0
-0.918132 0.6 0.0
-0.915841 0.65 0.0
-0.872606 0.5 0.0
-0.908968 0.8 0.0
-0.91355 0.7 0.0
-0.898707 0.75 0.0
-0.845208 0 0.0
-0.845438 0.05 0.0
-0.845667 0.1 0.0
-0.845896 0.15 0.0
-0.833853 0.25 0.0
-0.846126 0.2 0.0
-0.899146 0.85 0.0
-0.904386 0.9 0.0
-0.899584 0.95 0.0
-0.899804 1 0.0
-0.838062 0.35 0.0
[...]
POINT_DATA 10839
VECTORS Velocity float
0.21 0 0.0
0.24 0 0.0
0.2275 0 0.0
0.2475 0 0.0
0.25 0 0.0
0.2475 0 0.0
0 0 0.0
0.0475 0 0.0
0.1275 0 0.0
0.09 0 0.0
0.09 0 0.0
0.1275 0 0.0
0.1875 0 0.0
0.16 0 0.0
0.195557 -2.44021e-05 0.0
0.242841 -3.32448e-05 0.0
0.215776 -2.9027e-05 0.0
0.231406 -3.27091e-05 0.0
0.248725 -3.53904e-05 0.0
0.24 0 0.0
0.24284 -3.31706e-05 0.0
0.24852 -3.40834e-05 0.0
0 0 0.0
0.062224 -4.28022e-06 0.0
0.0322271 -2.83028e-06 0.0
0.16 0 0.0
0.1875 0 0.0
0.21 0 0.0
0.2275 0 0.0
0.193592 -2.73903e-05 0.0
0.138887 -1.52405e-05 0.0
0 0 0.0
0.0475 0 0.0
0.0998414 -1.06047e-05 0.0
0.0622205 -4.32848e-06 0.0
0.0998462 -1.10789e-05 0.0
0.138891 -1.53742e-05 0.0
0.17438 -3.84616e-05 0.0
0.201606 -5.26374e-05 0.0
0.235787 -6.42157e-05 0.0
0.244085 -6.71808e-05 0.0
0.223602 -8.60592e-05 0.0
0.249751 -7.01807e-05 0.0
0.249044 -7.81918e-05 0.0
0.231404 -3.32385e-05 0.0
0.244081 -6.6388e-05 0.0
0 0 0.0
0.0361084 -5.46598e-06 0.0
0.0736129 -1.52591e-05 0.0
0.0622496 -1.67145e-05 0.0
0.17437 -3.79003e-05 0.0
0.220162 -5.26038e-05 0.0
0.201594 -5.2717e-05 0.0
0.115548 -2.27715e-05 0.0
0.146676 -3.52363e-05 0.0
0 0 0.0
0.0360873 -3.6867e-06 0.0
0.0693659 -1.19403e-05 0.0
0.0899832 -2.36586e-05 0.0
0.109391 -3.19735e-05 0.0
0.146692 -3.45511e-05 0.0
0.178902 -6.44405e-05 0.0
0.206293 -8.41943e-05 0.0
0.214501 -0.000113386 0.0
0.238527 -0.000100593 0.0
0.24735 -0.000104734 0.0
0.229607 -0.000127986 0.0
0.226323 -9.04183e-05 0.0
0.249983 -0.000105249 0.0
0.246426 -0.000102403 0.0
0.23668 -9.64338e-05 0.0
0 0 0.0
0.0322511 -6.1759e-06 0.0
0.0956971 -3.62982e-05 0.0
0.0694301 -2.73601e-05 0.0
0.178876 -6.34651e-05 0.0
0.206269 -8.48332e-05 0.0
0.127476 -4.89755e-05 0.0
0.165873 -8.02848e-05 0.0
0.152325 -5.75428e-05 0.0
0 0 0.0
0.0360793 -5.29466e-06 0.0
0.0621953 -1.65405e-05 0.0
0.0956295 -3.69933e-05 0.0
0.127525 -4.94425e-05 0.0
0.156661 -7.1761e-05 0.0
0.115601 -5.67431e-05 0.0
0.193627 -0.000118196 0.0
0.218142 -0.000149485 0.0
0.24094 -0.000136345 0.0
0.247737 -0.000141387 0.0
0.25 -0.000142927 0.0
0.234398 -0.000172992 0.0
0.229576 -0.000126223 0.0
0.247727 -0.000141077 0.0
0.240919 -0.000136107 0.0
0 0 0.0
0.034488 -8.54802e-06 0.0
0.103122 -5.57414e-05 0.0
0.0623042 -2.77127e-05 0.0
0.189727 -0.000100499 0.0
0.212988 -0.000140259 0.0
0.170533 -0.000108813 0.0
0.144329 -8.08101e-05 0.0
0 0 0.0
0.0398975 -9.10658e-06 0.0
0.0997855 -5.07004e-05 0.0
0.0693204 -2.69195e-05 0.0
0.170625 -0.000108925 0.0
0.144422 -8.25522e-05 0.0
0.124378 -8.36874e-05 0.0
0.18365 -0.000137614 0.0
0.204132 -0.000164694 0.0
0.222039 -0.000193843 0.0
0.249109 -0.000187538 0.0
0.244027 -0.00018255 0.0
0.24912 -0.000187546 0.0
0.238551 -0.000220105 0.0
0.234353 -0.00017198 0.0
0.244883 -0.000197667 0.0
0 0 0.0
0.032293 -9.05177e-06 0.0
0.0940754 -5.85836e-05 0.0
0.0652189 -3.50432e-05 0.0
0.196696 -0.000150462 0.0
0.217871 -0.000184771 0.0
0.177437 -0.00015269 0.0
0.148689 -0.000106638 0.0
0.120328 -7.47129e-05 0.0
0 0 0.0
0.03439 -8.63615e-06 0.0
0.0716431 -3.51781e-05 0.0
0.152425 -0.000119549 0.0
0.127616 -0.000103862 0.0
0.187579 -0.000170558 0.0
0.211951 -0.000212356 0.0
0.248605 -0.000232677 0.0
0.225686 -0.000240533 0.0
0.249783 -0.000234362 0.0
0.246474 -0.000230421 0.0
0.242065 -0.000269519 0.0
0.23849 -0.000219492 0.0
0 0 0.0
0.0338757 -1.13426e-05 0.0
0.0999946 -7.81959e-05 0.0
0.069547 -4.66454e-05 0.0
0.20626 -0.000198852 0.0
0.222404 -0.000231726 0.0
0.189974 -0.000206576 0.0
0.168253 -0.000166917 0.0
0.143002 -0.000128116 0.0
0.124193 -9.4609e-05 0.0
0.0970828 -6.36005e-05 0.0
0 0 0.0
0.0360198 -1.09956e-05 0.0
0.0673133 -3.76956e-05 0.0
0.130336 -0.000125454 0.0
0.168483 -0.000167697 0.0
0.199473 -0.000218678 0.0
0.218379 -0.000256556 0.0
0.241992 -0.000270177 0.0
0.25 -0.000282004 0.0
0.247989 -0.000278721 0.0
0.229082 -0.000289413 0.0
0.244938 -0.000320779 0.0
0.248741 -0.000295875 0.0
0.234445 -0.000276776 0.0
0 0 0.0
0.0362344 -1.46207e-05 0.0
0.122661 -0.000128487 0.0
0.0712316 -5.51616e-05 0.0
0.208349 -0.000243062 0.0
0.225125 -0.000289151 0.0
0.198047 -0.000252288 0.0
0.177724 -0.000209005 0.0
0.146524 -0.00015423 0.0
0.11913 -0.000107843 0.0
0.0970496 -7.21301e-05 0.0
0 0 0.0
0.0349372 -1.2312e-05 0.0
0.0672757 -4.24374e-05 0.0
0.152303 -0.000175231 0.0
0.178019 -0.000213922 0.0
0.210117 -0.000270521 0.0
0.244858 -0.000320681 0.0
0.24942 -0.000329428 0.0
0.232226 -0.000340265 0.0
0.244197 -0.000364798 0.0
0.249988 -0.000389279 0.0
0.249132 -0.000346087 0.0
0.235912 -0.000331269 0.0
0.212964 -0.000330117 0.0
0 0 0.0
0.0371637 -1.72222e-05 0.0
0.141112 -0.000178735 0.0
0.0999603 -0.000108192 0.0
0.0666026 -5.3763e-05 0.0
0.213628 -0.000295548 0.0
0.186606 -0.000257335 0.0
0.165083 -0.000209505 0.0
0.122238 -0.000129266 0.0
0.0928638 -7.91011e-05 0.0
0 0 0.0
0.0349072 -1.37479e-05 0.0
0.064224 -4.50723e-05 0.0
0.165599 -0.000223882 0.0
0.186969 -0.000263064 0.0
0.158126 -0.000234167 0.0
0.247091 -0.000374575 0.0
0.248691 -0.000430296 0.0
0.231053 -0.000381926 0.0
0.240526 -0.000407546 0.0
0.248758 -0.000429948 0.0
0.240202 -0.000380935 0.0
0.229255 -0.000374205 0.0
0.199183 -0.00032313 0.0
0.218635 -0.000386038 0.0
0 0 0.0
0.0346517 -1.69002e-05 0.0
0.126173 -0.000173683 0.0
0.0681816 -6.07398e-05 0.0
0.0988229 -0.000117797 0.0
0.208081 -0.000337797 0.0
0.189758 -0.000294624 0.0
0.168124 -0.000244659 0.0
0.140617 -0.000177432 0.0
0.0954062 -9.40638e-05 0.0
0 0 0.0
0.0332508 -1.40718e-05 0.0
0.0660528 -5.36604e-05 0.0
0.183225 -0.000305277 0.0
0.159265 -0.000261963 0.0
0.244898 -0.000443531 0.0
0.24966 -0.0004867 0.0
0.235962 -0.000446637 0.0
0.244859 -0.000472032 0.0
0.249378 -0.000485586 0.0
0.238619 -0.000448992 0.0
0.218419 -0.000405856 0.0
0.203106 -0.000376755 0.0
0.223372 -0.000441156 0.0
0 0 0.0
0.0478095 -3.37029e-05 0.0
0.127924 -0.000197945 0.0
0.0904278 -0.000110646 0.0
0.202606 -0.000362924 0.0
0.177964 -0.000298661 0.0
0.147884 -0.000224379 0.0
0.118717 -0.000147346 0.0
0.0780234 -7.90319e-05 0.0
0 0 0.0
0.0342285 -1.65802e-05 0.0
0.187834 -0.000361221 0.0
0.160404 -0.000291381 0.0
0.246451 -0.000506486 0.0
0.25 -0.000545581 0.0
0.24014 -0.000515319 0.0
0.247577 -0.000567869 0.0
0.239859 -0.000514748 0.0
0.22729 -0.000476638 0.0
0.209727 -0.000424177 0.0
0.227725 -0.000500422 0.0
0.210292 -0.000442091 0.0
0 0 0.0
0.0478735 -3.76084e-05 0.0
0.128019 -0.000220909 0.0
0.0905105 -0.000121653 0.0
0.187167 -0.000359251 0.0
0.159615 -0.000281863 0.0
0.0471943 -3.30859e-05 0.0
0.12708 -0.000195304 0.0
0.089585 -0.00010843 0.0
0 0 0.0
0.187911 -0.000405754 0.0
0.160494 -0.000326023 0.0
0.247419 -0.000574192 0.0
0.249999 -0.000614343 0.0
0.240173 -0.000580697 0.0
0.247595 -0.000638123 0.0
0.227244 -0.000536287 0.0
0.239826 -0.00057925 0.0
0.187091 -0.000403329 0.0
0.209664 -0.000476932 0.0
0.227766 -0.000549136 0.0
0.210357 -0.00049677 0.0
0 0 0.0
0.047944 -4.12209e-05 0.0
0.128126 -0.000245586 0.0
0.0906225 -0.000136421 0.0
0.126984 -0.000218817 0.0
0.159528 -0.000316117 0.0
0.0471344 -3.66965e-05 0.0
0.0894946 -0.000120505 0.0
0 0 0.0
0.187997 -0.000453031 0.0
0.160596 -0.000363388 0.0
0.247402 -0.000644087 0.0
0.249998 -0.000687955 0.0
0.22781 -0.000602242 0.0
0.240224 -0.000678856 0.0
0.247613 -0.000714017 0.0
0.227198 -0.000586802 0.0
0.239789 -0.000648514 0.0
0.187027 -0.000437226 0.0
0.209593 -0.000533281 0.0
0.210431 -0.000555258 0.0
0 0 0.0
0.0480269 -4.5828e-05 0.0
0.128264 -0.000276214 0.0
0.0907367 -0.000150663 0.0
0.126896 -0.000238978 0.0
0.159429 -0.000351908 0.0
0.0470616 -4.07776e-05 0.0
0.0893946 -0.000133052 0.0
0 0 0.0
0.16071 -0.000403121 0.0
0.18812 -0.00051649 0.0
0.247381 -0.000719057 0.0
0.249998 -0.000767068 0.0
0.240259 -0.000741379 0.0
0.227895 -0.000696587 0.0
0.247634 -0.000794609 0.0
0.239747 -0.000722321 0.0
0.22715 -0.000642011 0.0
0.186934 -0.000486158 0.0
0.209513 -0.000593174 0.0
0.210513 -0.000618717 0.0
0 0 0.0
0.0481102 -5.05735e-05 0.0
0.128379 -0.000301188 0.0
0.0908626 -0.000166173 0.0
0.12678 -0.000264509 0.0
0.159319 -0.000390668 0.0
0 0 0.0
0.0892829 -0.000147259 0.0
0.0469881 -4.48409e-05 0.0
0.188231 -0.0005748 0.0
0.160837 -0.000446916 0.0
0.227953 -0.000759866 0.0
0.247359 -0.000800455 0.0
0.249997 -0.000852953 0.0
0.247652 -0.000862805 0.0
0.240296 -0.000806911 0.0
0.239701 -0.000802378 0.0
0.227084 -0.000713547 0.0
0.186801 -0.000552225 0.0
0.209424 -0.000658771 0.0
0.210606 -0.000686736 0.0
0 0 0.0
0.0482048 -5.56776e-05 0.0
0.0909875 -0.000180936 0.0
0.128525 -0.000332215 0.0
0.126631 -0.000296506 0.0
0.159196 -0.000432474 0.0
0 0 0.0
0.0468999 -4.94019e-05 0.0
0.0891734 -0.00016044 0.0
0.188325 -0.000620338 0.0
0.16098 -0.000494705 0.0
0.228014 -0.000828072 0.0
0.240367 -0.000933113 0.0
0.247333 -0.000888851 0.0
0.249996 -0.000945675 0.0
0.247672 -0.000934757 0.0
0.239648 -0.000889064 0.0
0.22701 -0.000791195 0.0
0.186712 -0.00059605 0.0
0.209325 -0.000728648 0.0
0.210709 -0.000761766 0.0
0 0 0.0
0.04831 -6.09926e-05 0.0
0.128715 -0.000372666 0.0
0.0911562 -0.000201738 0.0
0.126508 -0.000322682 0.0
0.159059 -0.00047789 0.0
0.0468117 -5.38096e-05 0.0
0 0 0.0
0.0890258 -0.0001785 0.0
0.161137 -0.000546963 0.0
0.188494 -0.000703293 0.0
0.228132 -0.000950726 0.0
0.240426 -0.00103574 0.0
0.247698 -0.00103651 0.0
0.24729 -0.00102806 0.0
0.249994 -0.00104867 0.0
0.23959 -0.000985464 0.0
0.226898 -0.000904445 0.0
0.186549 -0.000674086 0.0
0.209215 -0.000805987 0.0
0.210823 -0.00084356 0.0
0 0 0.0
0.0484241 -6.65444e-05 0.0
0.0913254 -0.000220598 0.0
0.161312 -0.000602561 0.0
0.128871 -0.000403924 0.0
0.126351 -0.000356039 0.0
0.158939 -0.000517194 0.0
0.0467087 -5.97612e-05 0.0
0 0 0.0
0.0888904 -0.000195355 0.0
0.21093 -0.000920003 0.0
0.188611 -0.000760304 0.0
0.240477 -0.00112297 0.0
0.228228 -0.00105606 0.0
0.247743 -0.0011983 0.0
0.249991 -0.00115961 0.0
0.247263 -0.00111118 0.0
0.239524 -0.00108821 0.0
0.22682 -0.000981101 0.0
0.18644 -0.000725659 0.0
0.158742 -0.000582266 0.0
0.209093 -0.000888492 0.0
0 0 0.0
0.0914949 -0.000240377 0.0
0.0485582 -7.34834e-05 0.0
0.161467 -0.00065406 0.0
0.129103 -0.000453131 0.0
0.126177 -0.000393375 0.0
0 0 0.0
0.0465951 -6.61888e-05 0.0
0.0887098 -0.000218152 0.0
0.211049 -0.001002 0.0
0.188821 -0.000865096 0.0
0.240532 -0.00121736 0.0
0.228335 -0.00117113 0.0
0.247766 -0.00129876 0.0
0.249985 -0.00128249 0.0
0.247234 -0.00120266 0.0
0.158596 -0.000627257 0.0
0.208979 -0.000964181 0.0
0.23945 -0.00119916 0.0
0.226735 -0.00106432 0.0
0.186282 -0.000800194 0.0
0 0 0.0
0.0486893 -7.9585e-05 0.0
0.0916979 -0.000263246 0.0
0.161681 -0.000722513 0.0
0.129332 -0.000500032 0.0
0.0885265 -0.000240869 0.0
0.125955 -0.000440841 0.0
0 0 0.0
0.0464635 -7.39815e-05 0.0
0.2112 -0.00111061 0.0
0.189015 -0.00095983 0.0
0.240606 -0.00134804 0.0
0.228453 -0.00129951 0.0
0.247794 -0.00140672 0.0
0.249981 -0.00141846 0.0
0.24717 -0.00138436 0.0
0.158401 -0.000690422 0.0
0.239369 -0.00132241 0.0
0.208856 -0.00104298 0.0
0.226582 -0.00121308 0.0
0.186063 -0.000904451 0.0
0 0 0.0
0.0919478 -0.000292201 0.0
0.0488393 -8.68661e-05 0.0
0.161968 -0.00081641 0.0
0.129585 -0.000552704 0.0
0.0883464 -0.000264276 0.0
0.125742 -0.000487967 0.0
0 0 0.0
0.0463223 -8.25553e-05 0.0
0.189229 -0.00106767 0.0
0.211369 -0.00123376 0.0
0.240688 -0.00149609 0.0
0.24783 -0.00155423 0.0
0.228583 -0.00144252 0.0
0.249971 -0.00156453 0.0
0.247119 -0.00152996 0.0
0.239277 -0.00145381 0.0
0.249533 -0.00168477 0.0
0.158185 -0.000758963 0.0
0.226451 -0.00133443 0.0
0.208645 -0.00117811 0.0
0.185918 -0.000970279 0.0
0 0 0.0
0.0921779 -0.000319689 0.0
0.0490159 -9.61035e-05 0.0
0.162186 -0.000889884 0.0
0.129868 -0.000613005 0.0
0.0881274 -0.000292682 0.0
0.125545 -0.000530754 0.0
0 0 0.0
0.0461751 -9.16845e-05 0.0
0.189468 -0.00118921 0.0
0.211557 -0.00137325 0.0
0.24077 -0.00165738 0.0
0.228725 -0.00160638 0.0
0.24788 -0.00180332 0.0
0.24914 -0.00167286 0.0
0.243756 -0.00161315 0.0
0.233387 -0.00150765 0.0
0.249948 -0.00181821 0.0
0.157951 -0.000832293 0.0
0.218037 -0.00136201 0.0
0.203245 -0.00123246 0.0
0.185656 -0.00108592 0.0
0 0 0.0
0.0924564 -0.000354866 0.0
0.0491985 -0.00010519 0.0
0.162483 -0.000994102 0.0
0.130185 -0.000684403 0.0
0.125255 -0.000592442 0.0
0.0878858 -0.000323948 0.0
0 0 0.0
0.0459951 -0.000101833 0.0
0.189735 -0.00133005 0.0
0.211764 -0.00153232 0.0
0.24791 -0.00199572 0.0
0.228879 -0.00178991 0.0
0.240866 -0.0018425 0.0
0.24702 -0.00178004 0.0
0.239103 -0.0016906 0.0
0.226202 -0.00155432 0.0
0.249921 -0.00200779 0.0
0.157695 -0.000910785 0.0
0.208327 -0.00137413 0.0
0.185421 -0.0011861 0.0
0 0 0.0
0.0493932 -0.00011609 0.0
0.0927697 -0.000398336 0.0
0.130487 -0.000755191 0.0
0.19003 -0.00149101 0.0
0.162818 -0.00111627 0.0
0.124977 -0.00064873 0.0
0.0876208 -0.000357128 0.0
0.0458025 -0.000113104 0.0
0 0 0.0
0.229017 -0.00196181 0.0
0.211993 -0.0017172 0.0
0.247936 -0.00216415 0.0
0.24096 -0.00205295 0.0
0.226027 -0.00169814 0.0
0.246938 -0.00195831 0.0
0.23897 -0.0018539 0.0
0.249888 -0.00221714 0.0
0.185169 -0.00128748 0.0
0.157362 -0.00100413 0.0
0.208043 -0.00153565 0.0
0 0 0.0
0.0496224 -0.000132019 0.0
0.0931638 -0.000456337 0.0
0.130882 -0.000854057 0.0
0.190273 -0.00163511 0.0
0.163272 -0.0012987 0.0
0.124679 -0.000704646 0.0
0.0873051 -0.000393449 0.0
0.0455931 -0.000124009 0.0
0 0 0.0
0.124356 -0.000760226 0.0
0.229161 -0.00214584 0.0
0.212322 -0.00200414 0.0
0.241099 -0.00239434 0.0
0.247956 -0.00234384 0.0
0.225756 -0.0019055 0.0
0.238822 -0.00202773 0.0
0.246843 -0.00215497 0.0
0.249834 -0.00244913 0.0
0.184892 -0.00139071 0.0
0.157055 -0.0010859 0.0
0.207797 -0.00166809 0.0
0 0 0.0
0.0498831 -0.000150204 0.0
0.0935756 -0.000523444 0.0
0.13133 -0.000976639 0.0
0.190632 -0.00184821 0.0
0.163706 -0.00148205 0.0
0.0453602 -0.00013674 0.0
0.0869887 -0.000427304 0.0
0 0 0.0
0.124065 -0.000800996 0.0
0.229347 -0.00241202 0.0
0.212605 -0.00226389 0.0
0.241197 -0.00267446 0.0
0.247971 -0.00260684 0.0
0.225561 -0.00204228 0.0
0.23865 -0.00221463 0.0
0.249767 -0.00270661 0.0
0.246668 -0.00247058 0.0
0.184664 -0.00146486 0.0
0.156725 -0.00116083 0.0
0.207523 -0.00179868 0.0
0 0 0.0
0.0501814 -0.000173565 0.0
0.0940484 -0.000604826 0.0
0.131919 -0.00114836 0.0
0.191126 -0.00217119 0.0
0.212908 -0.00256797 0.0
0.164188 -0.0017029 0.0
0.0451264 -0.000146412 0.0
0.0866549 -0.000457052 0.0
0 0 0.0
0.123703 -0.000844257 0.0
0.22961 -0.00282283 0.0
0.241273 -0.00293115 0.0
0.247974 -0.00290039 0.0
0.249696 -0.00292079 0.0
0.225349 -0.00217812 0.0
0.23844 -0.0024199 0.0
0.24651 -0.00271169 0.0
0.156368 -0.00122878 0.0
0.184337 -0.00156351 0.0
0.207213 -0.00193071 0.0
0 0 0.0
0.0505535 -0.000204322 0.0
0.0946013 -0.000709678 0.0
0.132515 -0.00133787 0.0
0.191459 -0.00240577 0.0
0.213231 -0.00291231 0.0
0.164733 -0.00196514 0.0
0.0448635 -0.000155558 0.0
0.0863026 -0.000481729 0.0
0 0 0.0
0.156064 -0.00126886 0.0
0.085941 -0.000496961 0.0
0.123261 -0.000880336 0.0
0.229814 -0.00320191 0.0
0.241339 -0.00320218 0.0
0.247942 -0.00338874 0.0
0.249613 -0.00314548 0.0
0.246367 -0.002917 0.0
0.225055 -0.00234946 0.0
0.238096 -0.00272582 0.0
0.183878 -0.00167414 0.0
0.20692 -0.00204711 0.0
0.229988 -0.00353603 0.0
0 0 0.0
0.0509687 -0.000241024 0.0
0.1332 -0.00156732 0.0
0.0952444 -0.000838402 0.0
0.213582 -0.00332391 0.0
0.192059 -0.00285726 0.0
0.165341 -0.00227666 0.0
0.0445781 -0.000160944 0.0
0 0 0.0
0.183568 -0.00173734 0.0
0.155653 -0.00131421 0.0
0.122857 -0.000901955 0.0
0.0442886 -0.000169238 0.0
0.0855677 -0.00050683 0.0
0.241419 -0.00359475 0.0
0.247899 -0.00368926 0.0
0.249462 -0.00347832 0.0
0.249325 -0.00375659 0.0
0.246192 -0.00313166 0.0
0.224708 -0.00253143 0.0
0.237777 -0.00296375 0.0
0.20659 -0.00215065 0.0
0.230147 -0.00391246 0.0
0.0514375 -0.000284503 0.0
0 0 0.0
0.133859 -0.00179296 0.0
0.0959944 -0.000989027 0.0
0.213948 -0.00379303 0.0
0.192455 -0.00317859 0.0
0.166027 -0.00264619 0.0
0 0 0.0
0.183123 -0.00180327 0.0
0.155121 -0.00134533 0.0
0.122508 -0.00090021 0.0
0.044018 -0.000171044 0.0
0.0851934 -0.000508332 0.0
0.241489 -0.00423647 0.0
0.247841 -0.00400769 0.0
0.249152 -0.0040481 0.0
0.245797 -0.00356832 0.0
0.224312 -0.00271277 0.0
0.237418 -0.00321371 0.0
0.206016 -0.00231414 0.0
0.230355 -0.00443649 0.0
0 0 0.0
0.0520171 -0.000340354 0.0
0.13474 -0.00210527 0.0
0.0967888 -0.00115296 0.0
0.166794 -0.00307211 0.0
0.214334 -0.00433765 0.0
0.193178 -0.00378829 0.0
0 0 0.0
0 0 0.0
0.182617 -0.00186276 0.0
0.15464 -0.00135811 0.0
0.122086 -0.000892953 0.0
0.0848274 -0.000502026 0.0
0.0437344 -0.000170076 0.0
0.241506 -0.00476422 0.0
0.247715 -0.00447465 0.0
0.237072 -0.0034285 0.0
0.248877 -0.00447659 0.0
0.245433 -0.00391519 0.0
0.223842 -0.00290519 0.0
0.20549 -0.00243289 0.0
0.241493 -0.00524197 0.0
0.230532 -0.00503148 0.0
0.0527043 -0.000404071 0.0
0.0978068 -0.00135839 0.0
0.135756 -0.00247365 0.0
0.16748 -0.00347293 0.0
0.21474 -0.00495293 0.0
0.193644 -0.0042277 0.0
0 0 0.0
0 0 0.0
0.154232 -0.00135033 0.0
0.181914 -0.00191374 0.0
0.0845079 -0.000485834 0.0
0.121592 -0.00086849 0.0
0.0434479 -0.00016895 0.0
0.247456 -0.00522596 0.0
0.248518 -0.00495687 0.0
0.204901 -0.0025473 0.0
0.236677 -0.00364757 0.0
0.24511 -0.0042063 0.0
0.223093 -0.00316984 0.0
0.241455 -0.00574153 0.0
0.230772 -0.00595745 0.0
0.215154 -0.00565856 0.0
0.0535688 -0.0004843 0.0
0.0989968 -0.00160878 0.0
0.137112 -0.00296568 0.0
0.168431 -0.00402488 0.0
0.1945 -0.00504622 0.0
0 0 0.0
0 0 0.0
0.153583 -0.00133159 0.0
0.18127 -0.00195372 0.0
0.0841426 -0.000461302 0.0
0.121164 -0.000838042 0.0
0.0431708 -0.000163783 0.0
0.24473 -0.00451797 0.0
0.248083 -0.00547414 0.0
0.247174 -0.00584246 0.0
0.204224 -0.00266165 0.0
0.236107 -0.00394826 0.0
0.222421 -0.00339075 0.0
0.180566 -0.00198748 0.0
0.241297 -0.00675434 0.0
0 0 0.0
0.230888 -0.00676343 0.0
0.195249 -0.00581499 0.0
0.215573 -0.00644663 0.0
0.0545024 -0.000572731 0.0
0.138279 -0.00339809 0.0
0.100544 -0.00193766 0.0
0.169715 -0.00482152 0.0
0 0 0.0
0 0 0.0
0 0 0.0
0 0 0.0
0 0 0.0
0.0429324 -0.000156845 0.0
0.120741 -0.000803886 0.0
0.152999 -0.00131411 0.0
0.0838442 -0.000443178 0.0
0.244153 -0.0049385 0.0
0.247543 -0.0060528 0.0
0.246832 -0.00651879 0.0
0.221792 -0.00356214 0.0
0.203448 -0.0027792 0.0
0.235131 -0.00440421 0.0
0.202717 -0.00288139 0.0
0.179981 -0.00201024 0.0
0.241088 -0.00759285 0.0
0.230984 -0.00764102 0.0
0 0 0.0
9.53512e-05 -3.84831e-05 0.0
0 0 0.0
-0.000358294 0.00208271 0.0
0.216008 -0.00734889 0.0
0.195861 -0.00644869 0.0
0.0557156 -0.000691363 0.0
0.139815 -0.00396547 0.0
0.102194 -0.00228998 0.0
0.170946 -0.00559319 0.0
0 0 0.0
0 0 0.0
0 0 0.0
-0.00026705 0.00112959 0.0
-2.46845e-05 -0.000107863 0.0
3.06366e-05 -5.00917e-05 0.0
0 0 0.0
0.0426823 -0.000152595 0.0
0.12038 -0.000773106 0.0
0.152383 -0.00129741 0.0
0.083512 -0.000422074 0.0
0.243471 -0.00541014 0.0
0.246893 -0.0066866 0.0
0.246386 -0.00726142 0.0
0.221084 -0.00375683 0.0
0.234465 -0.00470305 0.0
0.201907 -0.00298616 0.0
0.178933 -0.00206147 0.0
0.240816 -0.00850786 0.0
0.233933 -0.00855876 0.0
0.224309 -0.00839245 0.0
0 0 0.0
0.000126965 5.4005e-06 0.0
0 0 0.0
0 0 0.0
-0.00126942 0.00469667 0.0
-0.00122379 0.00308289 0.0
0.211912 -0.00803929 0.0
0.196715 -0.00739881 0.0
0.103919 -0.00266429 0.0
0.0570243 -0.000830982 0.0
0.141564 -0.00463397 0.0
0.172299 -0.0064744 0.0
0 0 0.0
-0.000436468 0.000553001 0.0
-0.000830932 0.00158807 0.0
-0.000270302 0.000206728 0.0
-0.000230932 0.00022051 0.0
0 0 0.0
0.0424446 -0.000149174 0.0
0.11996 -0.000745349 0.0
0.15174 -0.0012804 0.0
0.0832207 -0.000407445 0.0
0.242661 -0.0059209 0.0
0.246119 -0.00737561 0.0
0.245829 -0.00807711 0.0
0.219752 -0.00410261 0.0
0.233719 -0.00500567 0.0
0.200845 -0.00313663 0.0
0.151071 -0.00129212 0.0
0.177999 -0.00212601 0.0
0.240523 -0.00929962 0.0
0.231022 -0.00934002 0.0
0.216726 -0.00916031 0.0
0 0 0.0
-0.000134169 0.000131731 0.0
0 0 0.0
0 0 0.0
0 0 0.0
0 0 0.0
-0.0022123 0.00328294 0.0
-0.00035378 0.00404492 0.0
-0.00129513 0.00608906 0.0
-0.00301385 0.00798593 0.0
-0.00254796 0.00546108 0.0
0 0 0.0
-6.14387e-05 0.00600871 0.0
0.197851 -0.00879411 0.0
0.173489 -0.00730089 0.0
0 0 0.0
0.0587531 -0.00102621 0.0
0.106124 -0.00317351 0.0
0.14388 -0.00560001 0.0
0 0 0.0
0 0 0.0
-0.00133267 0.00158066 0.0
-0.00101624 0.000897662 0.0