# vtk DataFile Version 3.0
Mesh NS-CD Problem
ASCII
DATASET UNSTRUCTURED_GRID
POINTS 10839 float
-2 0.3 0.0
-2 0.4 0.0
-2 0.35 0.0
-2 0.45 0.0
-2 0.5 0.0
-2 0.55 0.0
-2 0 0.0
-2 0.05 0.0
-2 0.85 0.0
-2 0.9 0.0
-2 0.1 0.0
-2 0.15 0.0
-2 0.25 0.0
-2 0.2 0.0
-1.96653 0.266667 0.0
-1.96524 0.415385 0.0
-1.96485 0.315 0.0
-1.96348 0.363636 0.0
-1.96414 0.464286 0.0
-2 0.6 0.0
-1.96538 0.584615 0.0
-1.96538 0.538462 0.0
-1.94979 0 0.0
-1.96653 0.0666666 0.0
-1.93306 0.0333333 0.0
-2 0.8 0.0
-2 0.75 0.0
-2 0.7 0.0
-2 0.65 0.0
-1.96249 0.7375 0.0
-1.96666 0.833333 0.0
-2 1 0.0
-2 0.95 0.0
-1.96249 0.8875 0.0
-1.96666 0.933333 0.0
-1.96234 0.1125 0.0
-1.96653 0.166667 0.0
-1.93724 0.225 0.0
-1.92971 0.28 0.0
-1.93048 0.380769 0.0
-1.93048 0.423077 0.0
-1.89958 0.3375 0.0
-1.9292 0.484203 0.0
-1.92117 0.530907 0.0
-1.96363 0.636364 0.0
-1.93076 0.576923 0.0
-1.89958 0 0.0
-1.88703 0.0375 0.0
-1.90963 0.08 0.0
-1.86611 0.0666666 0.0
-1.93749 0.775 0.0
-1.93635 0.672727 0.0
-1.92999 0.72 0.0
-1.93332 0.866667 0.0
-1.92856 0.821429 0.0
-1.94999 1 0.0
-1.92499 0.9625 0.0
-1.92499 0.925 0.0
-1.89998 0.9 0.0
-1.89958 0.125 0.0
-1.92827 0.178571 0.0
-1.89958 0.233333 0.0
-1.89045 0.290909 0.0
-1.86096 0.311538 0.0
-1.89241 0.392857 0.0
-1.89334 0.448489 0.0
-1.85655 0.357143 0.0
-1.89614 0.653846 0.0
-1.89427 0.504121 0.0
-1.8952 0.559753 0.0
-1.89614 0.615385 0.0
-1.84937 0 0.0
-1.83264 0.0333333 0.0
-1.85655 0.107143 0.0
-1.81172 0.075 0.0
-1.89998 0.766667 0.0
-1.89089 0.709091 0.0
-1.87498 0.85 0.0
-1.85998 0.79 0.0
-1.88748 0.8125 0.0
-1.89998 1 0.0
-1.88748 0.9625 0.0
-1.86664 0.933333 0.0
-1.85712 0.892857 0.0
-1.87448 0.15 0.0
-1.86611 0.194444 0.0
-1.83264 0.133333 0.0
-1.83264 0.2625 0.0
-1.82068 0.321429 0.0
-1.85664 0.404762 0.0
-1.85674 0.452381 0.0
-1.85683 0.5 0.0
-1.81184 0.375 0.0
-1.85712 0.642857 0.0
-1.85693 0.547619 0.0
-1.85702 0.595238 0.0
-1.79917 0 0.0
-1.78482 0.0357143 0.0
-1.79917 0.116667 0.0
-1.76569 0.0666666 0.0
-1.85452 0.745455 0.0
-1.82689 0.692308 0.0
-1.81815 0.781818 0.0
-1.82497 0.825 0.0
-1.84997 1 0.0
-1.8333 0.958333 0.0
-1.81247 0.8875 0.0
-1.81247 0.925 0.0
-1.81742 0.218182 0.0
-1.82427 0.175 0.0
-1.77634 0.145455 0.0
-1.79144 0.242308 0.0
-1.78482 0.285714 0.0
-1.77469 0.332653 0.0
-1.81215 0.529762 0.0
-1.81194 0.422619 0.0
-1.81203 0.470238 0.0
-1.76714 0.392857 0.0
-1.81234 0.625 0.0
-1.79732 0.571429 0.0
-1.74896 0 0.0
-1.73222 0.0333333 0.0
-1.75398 0.105 0.0
-1.71883 0.07 0.0
-1.79227 0.730769 0.0
-1.78007 0.679121 0.0
-1.75765 0.769231 0.0
-1.78178 0.818182 0.0
-1.78996 0.86 0.0
-1.79996 1 0.0
-1.78568 0.964286 0.0
-1.76663 0.922222 0.0
-1.76569 0.1875 0.0
-1.73222 0.15 0.0
-1.74896 0.25 0.0
-1.73714 0.304762 0.0
-1.76743 0.537202 0.0
-1.72869 0.343878 0.0
-1.76732 0.485119 0.0
-1.76723 0.440476 0.0
-1.72243 0.410714 0.0
-1.76757 0.607143 0.0
-1.69875 0 0.0
-1.68369 0.035 0.0
-1.69875 0.1125 0.0
-1.66528 0.075 0.0
-1.74341 0.708974 0.0
-1.73324 0.665934 0.0
-1.70441 0.74478 0.0
-1.71423 0.785714 0.0
-1.72303 0.826923 0.0
-1.74541 0.854545 0.0
-1.74541 0.890909 0.0
-1.74996 1 0.0
-1.73745 0.9625 0.0
-1.71359 0.927273 0.0
-1.68716 0.153846 0.0
-1.7131 0.214286 0.0
-1.70725 0.275 0.0
-1.69712 0.321939 0.0
-1.72279 0.589286 0.0
-1.72261 0.5 0.0
-1.7227 0.544643 0.0
-1.6827 0.355102 0.0
-1.67773 0.428571 0.0
-1.70763 0.464286 0.0
-1.70369 0.62449 0.0
-1.64854 0 0.0
-1.63181 0.0375 0.0
-1.64137 0.142857 0.0
-1.61764 0.0769231 0.0
-1.69458 0.703846 0.0
-1.67471 0.657437 0.0
-1.66143 0.727637 0.0
-1.67125 0.768571 0.0
-1.67851 0.821429 0.0
-1.68841 0.861538 0.0
-1.70904 0.890909 0.0
-1.69995 1 0.0
-1.68176 0.963636 0.0
-1.67267 0.927273 0.0
-1.65427 0.187143 0.0
-1.66718 0.231429 0.0
-1.66554 0.3 0.0
-1.67802 0.571429 0.0
-1.67792 0.523809 0.0
-1.6367 0.366327 0.0
-1.63682 0.423469 0.0
-1.62568 0.502976 0.0
-1.6629 0.470238 0.0
-1.65254 0.618367 0.0
-1.6059 0.307143 0.0
-1.59833 0 0.0
-1.58288 0.0384615 0.0
-1.60563 0.169643 0.0
-1.58179 0.112271 0.0
-1.56964 0.0714286 0.0
-1.64574 0.690385 0.0
-1.62827 0.751429 0.0
-1.63371 0.791071 0.0
-1.64279 0.857143 0.0
-1.65378 0.896154 0.0
-1.64994 1 0.0
-1.6363 0.963636 0.0
-1.61916 0.930769 0.0
-1.61345 0.209107 0.0
-1.62126 0.248571 0.0
-1.56989 0.196429 0.0
-1.63324 0.553571 0.0
-1.58846 0.535714 0.0
-1.59408 0.361905 0.0
-1.59161 0.402211 0.0
-1.58832 0.464286 0.0
-1.61504 0.598581 0.0
-1.59683 0.64359 0.0
-1.57899 0.274107 0.0
-1.56176 0.322381 0.0
-1.54812 0 0.0
-1.53378 0.0357143 0.0
-1.54593 0.147619 0.0
-1.53385 0.0732143 0.0
-1.53393 0.110714 0.0
-1.58522 0.704286 0.0
-1.58709 0.745 0.0
-1.58896 0.785714 0.0
-1.60695 0.830357 0.0
-1.60707 0.892857 0.0
-1.59993 1 0.0
-1.58454 0.965385 0.0
-1.57135 0.928571 0.0
-1.55209 0.241071 0.0
-1.5291 0.198214 0.0
-1.56936 0.570918 0.0
-1.54369 0.517857 0.0
-1.5464 0.380952 0.0
-1.54564 0.427721 0.0
-1.54488 0.47449 0.0
-1.55026 0.606122 0.0
-1.54222 0.677143 0.0
-1.52943 0.282857 0.0
-1.52143 0.33619 0.0
-1.49792 0 0.0
-1.49802 0.05 0.0
-1.49822 0.15 0.0
-1.49312 0.1 0.0
-1.5423 0.717143 0.0
-1.54419 0.767857 0.0
-1.54727 0.819048 0.0
-1.57122 0.861905 0.0
-1.53553 0.914286 0.0
-1.54992 1 0.0
-1.53563 0.964286 0.0
-1.49842 0.25 0.0
-1.48831 0.2 0.0
-1.5214 0.558929 0.0
-1.49891 0.5 0.0
-1.49871 0.4 0.0
-1.47631 0.45 0.0
-1.49911 0.6 0.0
-1.49921 0.65 0.0
-1.49931 0.7 0.0
-1.48111 0.35 0.0
-1.48351 0.3 0.0
-1.44771 0 0.0
-1.44782 0.05 0.0
-1.44804 0.15 0.0
-1.44793 0.1 0.0
-1.49941 0.75 0.0
-1.49951 0.8 0.0
-1.49981 0.95 0.0
-1.49961 0.85 0.0
-1.49971 0.9 0.0
-1.49991 1 0.0
-1.44826 0.25 0.0
-1.43815 0.2 0.0
-1.47151 0.55 0.0
-1.44881 0.5 0.0
-1.44859 0.4 0.0
-1.42619 0.45 0.0
-1.44913 0.65 0.0
-1.44902 0.6 0.0
-1.44935 0.75 0.0
-1.44924 0.7 0.0
-1.43972 0.35 0.0
-1.43336 0.3 0.0
-1.3975 0 0.0
-1.39762 0.05 0.0
-1.39786 0.15 0.0
-1.39274 0.1 0.0
-1.44957 0.85 0.0
-1.44946 0.8 0.0
-1.4523 0.95 0.0
-1.44968 0.9 0.0
-1.4499 1 0.0
-1.3981 0.25 0.0
-1.38798 0.2 0.0
-1.42141 0.55 0.0
-1.3987 0.5 0.0
-1.39834 0.35 0.0
-1.37845 0.4 0.0
-1.37607 0.45 0.0
-1.40784 0.65 0.0
-1.39894 0.6 0.0
-1.41185 0.75 0.0
-1.39918 0.7 0.0
-1.38322 0.3 0.0
-1.34729 0 0.0
-1.34492 0.05 0.0
-1.34018 0.15 0.0
-1.34255 0.1 0.0
-1.40707 0.85 0.0
-1.39941 0.8 0.0
-1.39977 0.95 0.0
-1.39965 0.9 0.0
-1.39989 1 0.0
-1.33781 0.2 0.0
-1.33544 0.25 0.0
-1.37131 0.55 0.0
-1.34859 0.5 0.0
-1.33833 0.4 0.0
-1.3307 0.35 0.0
-1.32595 0.45 0.0
-1.34885 0.6 0.0
-1.36655 0.65 0.0
-1.36179 0.75 0.0
-1.34911 0.7 0.0
-1.33307 0.3 0.0
-1.29708 0 0.0
-1.29722 0.05 0.0
-1.2975 0.15 0.0
-1.29236 0.1 0.0
-1.35703 0.85 0.0
-1.34937 0.8 0.0
-1.34988 1 0.0
-1.34962 0.9 0.0
-1.35226 0.95 0.0
-1.28528 0.25 0.0
-1.28764 0.2 0.0
-1.28931 0.35 0.0
-1.32121 0.55 0.0
-1.29848 0.5 0.0
-1.28709 0.45 0.0
-1.2982 0.4 0.0
-1.29876 0.6 0.0
-1.31647 0.65 0.0
-1.29918 0.75 0.0
-1.29904 0.7 0.0
-1.28292 0.3 0.0
-1.24687 0 0.0
-1.24702 0.05 0.0
-1.24717 0.1 0.0
-1.24732 0.15 0.0
-1.29946 0.85 0.0
-1.29932 0.8 0.0
-1.29987 1 0.0
-1.29974 0.95 0.0
-1.30462 0.9 0.0
-1.24762 0.25 0.0
-1.23747 0.2 0.0
-1.24792 0.35 0.0
-1.22807 0.4 0.0
-1.27111 0.55 0.0
-1.24837 0.5 0.0
-1.24822 0.45 0.0
-1.24867 0.6 0.0
-1.26639 0.65 0.0
-1.26167 0.75 0.0
-1.24897 0.7 0.0
-1.23277 0.3 0.0
-1.19667 0 0.0
-1.19683 0.05 0.0
-1.18964 0.15 0.0
-1.19198 0.1 0.0
-1.25695 0.85 0.0
-1.24927 0.8 0.0
-1.25223 0.95 0.0
-1.24987 1 0.0
-1.24957 0.9 0.0
-1.1873 0.2 0.0
-1.18496 0.25 0.0
-1.18028 0.35 0.0
-1.17794 0.4 0.0
-1.1981 0.45 0.0
-1.19842 0.55 0.0
-1.19826 0.5 0.0
-1.19858 0.6 0.0
-1.19874 0.65 0.0
-1.19906 0.75 0.0
-1.1989 0.7 0.0
-1.18262 0.3 0.0
-1.14646 0 0.0
-1.14663 0.05 0.0
-1.1418 0.1 0.0
-1.13713 0.2 0.0
-1.14697 0.15 0.0
-1.20691 0.85 0.0
-1.20926 0.8 0.0
-1.20221 0.95 0.0
-1.19986 1 0.0
-1.20456 0.9 0.0
-1.13997 0.3 0.0
-1.14731 0.25 0.0
-1.13781 0.4 0.0
-1.13014 0.35 0.0
-1.12548 0.45 0.0
-1.14815 0.5 0.0
-1.15962 0.55 0.0
-1.14849 0.6 0.0
-1.15745 0.65 0.0
-1.16155 0.75 0.0
-1.14917 0.8 0.0
-1.14883 0.7 0.0
-1.09625 0 0.0
-1.09661 0.1 0.0
-1.09393 0.05 0.0
-1.09697 0.2 0.0
-1.08929 0.15 0.0
-1.15687 0.85 0.0
-1.14985 1 0.0
-1.15219 0.95 0.0
-1.14951 0.9 0.0
-1.09733 0.3 0.0
-1.08465 0.25 0.0
-1.09769 0.4 0.0
-1.08 0.35 0.0
-1.08661 0.45 0.0
-1.09804 0.5 0.0
-1.12082 0.55 0.0
-1.10916 0.8 0.0
-1.10629 0.7 0.0
-1.0984 0.6 0.0
-1.11616 0.65 0.0
-1.11149 0.75 0.0
-1.04604 0 0.0
-1.04623 0.05 0.0
-1.04642 0.1 0.0
-1.0468 0.2 0.0
-1.03911 0.15 0.0
-1.09948 0.9 0.0
-1.0993 0.85 0.0
-1.09984 1 0.0
-1.09966 0.95 0.0
-1.04718 0.3 0.0
-1.03449 0.25 0.0
-1.04756 0.4 0.0
-1.02986 0.35 0.0
-1.04775 0.45 0.0
-1.04794 0.5 0.0
-1.04813 0.55 0.0
-1.05911 0.8 0.0
-1.04831 0.6 0.0
-1.06376 0.7 0.0
-1.0485 0.65 0.0
-1.04888 0.75 0.0
-0.995833 0 0.0
-0.991231 0.1 0.0
-0.996033 0.05 0.0
-0.986629 0.2 0.0
-0.98893 0.15 0.0
-1.05447 0.9 0.0
-1.04926 0.85 0.0
-1.04983 1 0.0
-1.04964 0.95 0.0
-0.984328 0.25 0.0
-0.99703 0.3 0.0
-0.997429 0.4 0.0
-0.997628 0.45 0.0
-0.979726 0.35 0.0
-0.997827 0.5 0.0
-0.998027 0.55 0.0
-0.998226 0.6 0.0
-0.961416 0.475 0.0
-1.00907 0.8 0.0
-0.998426 0.65 0.0
-0.998625 0.7 0.0
-1.01138 0.75 0.0
-0.945625 0 0.0
-0.946044 0.1 0.0
-0.943334 0.05 0.0
-0.946463 0.2 0.0
-0.938752 0.15 0.0
-1.00444 0.9 0.0
-1.00675 0.85 0.0
-0.999821 1 0.0
-1.00213 0.95 0.0
-0.93417 0.25 0.0
-0.946881 0.3 0.0
-0.9473 0.4 0.0
-0.929588 0.35 0.0
-0.925005 0.45 0.0
-0.960371 0.525 0.0
-0.959325 0.575 0.0
-0.958279 0.625 0.0
-0.922714 0.5 0.0
-0.959017 0.8 0.0
-0.957233 0.675 0.0
-0.952999 0.7125 0.0
-0.948766 0.75 0.0
-0.895417 0 0.0
-0.895855 0.1 0.0
-0.893136 0.05 0.0
-0.896294 0.2 0.0
-0.888573 0.15 0.0
-0.949184 0.85 0.0
-0.954415 0.9 0.0
-0.949812 1 0.0
-0.949603 0.95 0.0
-0.884011 0.25 0.0
-0.896733 0.3 0.0
-0.874887 0.45 0.0
-0.879449 0.35 0.0
-0.897171 0.4 0.0
-0.920423 0.55 0.0
-0.918132 0.6 0.0
-0.915841 0.65 0.0
-0.872606 0.5 0.0
-0.908968 0.8 0.0
-0.91355 0.7 0.0
-0.898707 0.75 0.0
-0.845208 0 0.0
-0.845438 0.05 0.0
-0.845667 0.1 0.0
-0.845896 0.15 0.0
-0.833853 0.25 0.0
-0.846126 0.2 0.0
-0.899146 0.85 0.0
-0.904386 0.9 0.0
-0.899584 0.95 0.0
-0.899804 1 0.0
-0.838062 0.35 0.0
[...]
POINT_DATA 10839
VECTORS Velocity float
0.21 0 0.0
0.24 0 0.0
0.2275 0 0.0
0.2475 0 0.0
0.25 0 0.0
0.2475 0 0.0
0 0 0.0
0.0475 0 0.0
0.1275 0 0.0
0.09 0 0.0
0.09 0 0.0
0.1275 0 0.0
0.1875 0 0.0
0.16 0 0.0
0.195557 -2.27471e-05 0.0
0.242841 -3.08092e-05 0.0
0.215776 -2.69968e-05 0.0
0.231406 -3.03633e-05 0.0
0.248725 -3.27459e-05 0.0
0.24 0 0.0
0.24284 -3.06456e-05 0.0
0.24852 -3.15048e-05 0.0
0 0 0.0
0.0622239 -4.07307e-06 0.0
0.0322268 -2.69099e-06 0.0
0.16 0 0.0
0.1875 0 0.0
0.21 0 0.0
0.2275 0 0.0
0.193592 -2.53884e-05 0.0
0.138887 -1.42505e-05 0.0
0 0 0.0
0.0475 0 0.0
0.0998416 -9.98979e-06 0.0
0.0622206 -4.12358e-06 0.0
0.0998461 -1.04476e-05 0.0
0.138891 -1.44218e-05 0.0
0.17438 -3.58338e-05 0.0
0.201605 -4.88852e-05 0.0
0.235787 -5.94144e-05 0.0
0.244085 -6.20711e-05 0.0
0.223601 -7.95562e-05 0.0
0.249751 -6.4725e-05 0.0
0.249044 -7.19933e-05 0.0
0.231404 -3.07098e-05 0.0
0.244081 -6.11445e-05 0.0
0 0 0.0
0.0361076 -5.1452e-06 0.0
0.0736121 -1.43191e-05 0.0
0.0622478 -1.56214e-05 0.0
0.174371 -3.51224e-05 0.0
0.220162 -4.85189e-05 0.0
0.201595 -4.86499e-05 0.0
0.115549 -2.1283e-05 0.0
0.146677 -3.27303e-05 0.0
0 0 0.0
0.0360876 -3.50286e-06 0.0
0.0693665 -1.12527e-05 0.0
0.0899844 -2.2101e-05 0.0
0.10939 -2.98382e-05 0.0
0.146691 -3.22435e-05 0.0
0.178901 -5.98089e-05 0.0
0.206292 -7.79129e-05 0.0
0.214499 -0.000104622 0.0
0.238526 -9.2765e-05 0.0
0.247349 -9.64124e-05 0.0
0.229606 -0.000117868 0.0
0.226324 -8.30027e-05 0.0
0.249983 -9.67325e-05 0.0
0.246427 -9.40206e-05 0.0
0.23668 -8.85125e-05 0.0
0 0 0.0
0.0322494 -5.78104e-06 0.0
0.0956947 -3.37485e-05 0.0
0.0694262 -2.53837e-05 0.0
0.178877 -5.85002e-05 0.0
0.20627 -7.79123e-05 0.0
0.127478 -4.52849e-05 0.0
0.165875 -7.37353e-05 0.0
0.152327 -5.3127e-05 0.0
0 0 0.0
0.0360801 -4.99782e-06 0.0
0.0621971 -1.54768e-05 0.0
0.0956321 -3.43172e-05 0.0
0.127523 -4.59426e-05 0.0
0.156659 -6.6509e-05 0.0
0.115598 -5.25586e-05 0.0
0.193624 -0.000109003 0.0
0.218139 -0.000137518 0.0
0.240939 -0.000125351 0.0
0.247737 -0.000129767 0.0
0.25 -0.000130971 0.0
0.234396 -0.000158745 0.0
0.229578 -0.000115385 0.0
0.247728 -0.000129108 0.0
0.24092 -0.000124447 0.0
0 0 0.0
0.0344849 -7.96255e-06 0.0
0.103117 -5.15091e-05 0.0
0.0622983 -2.56651e-05 0.0
0.189729 -9.20256e-05 0.0
0.212991 -0.000127819 0.0
0.170538 -9.93612e-05 0.0
0.144333 -7.40392e-05 0.0
0 0 0.0
0.0398995 -8.53094e-06 0.0
0.0997903 -4.67366e-05 0.0
0.0693244 -2.49697e-05 0.0
0.170621 -0.000100492 0.0
0.144418 -7.6288e-05 0.0
0.124372 -7.71269e-05 0.0
0.183645 -0.000126676 0.0
0.204127 -0.000151372 0.0
0.222034 -0.000177803 0.0
0.249109 -0.000171034 0.0
0.244025 -0.000167195 0.0
0.249119 -0.000171427 0.0
0.238548 -0.000201313 0.0
0.234354 -0.000156462 0.0
0.244884 -0.000179762 0.0
0 0 0.0
0.0322882 -8.41702e-06 0.0
0.0940677 -5.40246e-05 0.0
0.06521 -3.23707e-05 0.0
0.1967 -0.000136649 0.0
0.217875 -0.00016743 0.0
0.177444 -0.000138255 0.0
0.148696 -9.71557e-05 0.0
0.120334 -6.84145e-05 0.0
0 0 0.0
0.0343931 -8.08292e-06 0.0
0.0716497 -3.2456e-05 0.0
0.152419 -0.000110012 0.0
0.127606 -9.54811e-05 0.0
0.187572 -0.00015663 0.0
0.211945 -0.000194673 0.0
0.248605 -0.000211272 0.0
0.22568 -0.000220118 0.0
0.249781 -0.000213356 0.0
0.246472 -0.000210254 0.0
0.24206 -0.000245751 0.0
0.238492 -0.000198813 0.0
0 0 0.0
0.0338687 -1.05367e-05 0.0
0.0999827 -7.18832e-05 0.0
0.0695337 -4.30114e-05 0.0
0.206266 -0.000179395 0.0
0.22241 -0.000208788 0.0
0.189985 -0.000185565 0.0
0.168264 -0.000150441 0.0
0.143014 -0.000115965 0.0
0.124202 -8.61282e-05 0.0
0.0970921 -5.81941e-05 0.0
0 0 0.0
0.0360247 -1.02309e-05 0.0
0.0673234 -3.4642e-05 0.0
0.130323 -0.00011511 0.0
0.168474 -0.000153887 0.0
0.199465 -0.000200478 0.0
0.218371 -0.000234828 0.0
0.241994 -0.000243708 0.0
0.249998 -0.000255643 0.0
0.247989 -0.000251976 0.0
0.229074 -0.000264413 0.0
0.244932 -0.000291616 0.0
0.248738 -0.000268614 0.0
0.234449 -0.000248718 0.0
0 0 0.0
0.0362243 -1.35604e-05 0.0
0.122643 -0.000117678 0.0
0.0712136 -5.06955e-05 0.0
0.208358 -0.000217874 0.0
0.225133 -0.000258607 0.0
0.198061 -0.000225183 0.0
0.177739 -0.000187134 0.0
0.14654 -0.000138813 0.0
0.119146 -9.76601e-05 0.0
0.0970622 -6.57527e-05 0.0
0 0 0.0
0.0349445 -1.14069e-05 0.0
0.0672892 -3.88594e-05 0.0
0.152288 -0.000160581 0.0
0.178006 -0.000196155 0.0
0.210106 -0.000247762 0.0
0.24486 -0.000288155 0.0
0.249419 -0.000297122 0.0
0.232215 -0.000310543 0.0
0.244189 -0.000331471 0.0
0.249985 -0.000350449 0.0
0.249128 -0.000313308 0.0
0.235918 -0.000295901 0.0
0.212949 -0.00030268 0.0
0 0 0.0
0.0371503 -1.58708e-05 0.0
0.141092 -0.000163571 0.0
0.0999359 -9.86836e-05 0.0
0.0665802 -4.90474e-05 0.0
0.21364 -0.000263114 0.0
0.186625 -0.000228841 0.0
0.165103 -0.000186999 0.0
0.12226 -0.000116518 0.0
0.0928822 -7.18619e-05 0.0
0 0 0.0
0.0349169 -1.26977e-05 0.0
0.0642423 -4.12574e-05 0.0
0.165581 -0.000205211 0.0
0.186953 -0.000241277 0.0
0.158103 -0.000214502 0.0
0.247091 -0.000335547 0.0
0.248689 -0.000384781 0.0
0.231039 -0.000349228 0.0
0.240514 -0.000371144 0.0
0.248749 -0.00038828 0.0
0.240207 -0.000339113 0.0
0.229266 -0.000331079 0.0
0.199165 -0.000296929 0.0
0.218617 -0.000354671 0.0
0 0 0.0
0.0346355 -1.52908e-05 0.0
0.126144 -0.000158026 0.0
0.0681541 -5.46853e-05 0.0
0.0987921 -0.000106302 0.0
0.208101 -0.000297794 0.0
0.189782 -0.000260285 0.0
0.168151 -0.000217119 0.0
0.140643 -0.000158804 0.0
0.0954309 -8.53349e-05 0.0
0 0 0.0
0.033263 -1.30366e-05 0.0
0.0660768 -4.93988e-05 0.0
0.183203 -0.000280692 0.0
0.159239 -0.000240099 0.0
0.244899 -0.000393761 0.0
0.249653 -0.000434874 0.0
0.235944 -0.000408684 0.0
0.244843 -0.000428883 0.0
0.249366 -0.000437628 0.0
0.238627 -0.000395568 0.0
0.218439 -0.000354959 0.0
0.203084 -0.000347735 0.0
0.22335 -0.000406716 0.0
0 0 0.0
0.0477834 -2.96313e-05 0.0
0.127891 -0.000178831 0.0
0.0903911 -9.80171e-05 0.0
0.202633 -0.000317525 0.0
0.177998 -0.000262768 0.0
0.147922 -0.000199751 0.0
0.118749 -0.000132696 0.0
0.0780554 -7.31751e-05 0.0
0 0 0.0
0.034244 -1.56279e-05 0.0
0.187808 -0.000334132 0.0
0.160374 -0.000267418 0.0
0.246449 -0.000447852 0.0
0.249986 -0.000488023 0.0
0.240118 -0.000472174 0.0
0.247554 -0.00051499 0.0
0.239865 -0.000449764 0.0
0.227309 -0.00041354 0.0
0.209758 -0.000367217 0.0
0.227699 -0.000463648 0.0
0.210266 -0.000410933 0.0
0 0 0.0
0.0478383 -3.13282e-05 0.0
0.127981 -0.000197267 0.0
0.0904658 -0.000104632 0.0
0.187209 -0.000312677 0.0
0.159663 -0.000248761 0.0
0.0472179 -3.18197e-05 0.0
0.127129 -0.000176374 0.0
0.0896263 -0.000101179 0.0
0 0 0.0
0.187882 -0.000378652 0.0
0.160463 -0.000300108 0.0
0.247412 -0.000505605 0.0
0.249977 -0.000548669 0.0
0.240142 -0.000535763 0.0
0.247561 -0.000581094 0.0
0.227266 -0.000458719 0.0
0.239831 -0.000500593 0.0
0.187147 -0.000346742 0.0
0.209705 -0.000406747 0.0
0.227734 -0.000513289 0.0
0.210326 -0.000467712 0.0
0 0 0.0
0.0478953 -3.15845e-05 0.0
0.128086 -0.00021648 0.0
0.0905664 -0.000111557 0.0
0.127049 -0.000200062 0.0
0.159593 -0.000277822 0.0
0.0471599 -3.71677e-05 0.0
0.0895455 -0.000115989 0.0
0 0 0.0
0.187968 -0.000428972 0.0
0.160567 -0.000337029 0.0
0.247387 -0.000562892 0.0
0.249965 -0.000613436 0.0
0.227771 -0.000569925 0.0
0.240176 -0.000636426 0.0
0.247564 -0.000654258 0.0
0.227224 -0.000494558 0.0
0.239791 -0.000552461 0.0
0.187097 -0.000371212 0.0
0.209645 -0.000445265 0.0
0.210396 -0.000532659 0.0
0 0 0.0
0.0479581 -3.1433e-05 0.0
0.128228 -0.000241506 0.0
0.0906693 -0.00011733 0.0
0.126978 -0.000220996 0.0
0.159517 -0.000307288 0.0
0.0470856 -4.43841e-05 0.0
0.0894554 -0.000133674 0.0
0 0 0.0
0.160689 -0.000380092 0.0
0.188095 -0.000503578 0.0
0.247355 -0.000622817 0.0
0.249945 -0.000683298 0.0
0.240195 -0.000704659 0.0
0.22784 -0.000678317 0.0
0.247562 -0.000734392 0.0
0.239742 -0.000603878 0.0
0.227179 -0.000530543 0.0
0.187028 -0.000402996 0.0
0.209581 -0.000480768 0.0
0.210475 -0.000610616 0.0
0 0 0.0
0.0480172 -3.154e-05 0.0
0.128352 -0.000265943 0.0
0.0907847 -0.000125794 0.0
0.12689 -0.000247548 0.0
0.159439 -0.000336342 0.0
0 0 0.0
0.0893546 -0.00015456 0.0
0.0470063 -5.22929e-05 0.0
0.188217 -0.00058294 0.0
0.160834 -0.000435055 0.0
0.227885 -0.000759281 0.0
0.247314 -0.000685482 0.0
0.249916 -0.000759345 0.0
0.247554 -0.00080442 0.0
0.240212 -0.000779988 0.0
0.239683 -0.000654388 0.0
0.227115 -0.000571179 0.0
0.186937 -0.000435891 0.0
0.20951 -0.000511283 0.0
0.210564 -0.000702965 0.0
0 0 0.0
0.0480812 -3.34969e-05 0.0
0.0909042 -0.000138711 0.0
0.12852 -0.00030543 0.0
0.126785 -0.000276691 0.0
0.159361 -0.000361377 0.0
0 0 0.0
0.0469059 -6.1643e-05 0.0
0.0892573 -0.000172962 0.0
0.188323 -0.000654035 0.0
0.161007 -0.000508999 0.0
0.227927 -0.000853635 0.0
0.240232 -0.000937213 0.0
0.247259 -0.000750423 0.0
0.249873 -0.000841181 0.0
0.247541 -0.000881194 0.0
0.239608 -0.000702163 0.0
0.227041 -0.000606112 0.0
0.186879 -0.000448773 0.0
0.209431 -0.000531841 0.0
0.210663 -0.000818247 0.0
0 0 0.0
0.0481555 -3.84573e-05 0.0
0.128756 -0.000378305 0.0
0.0910781 -0.00017092 0.0
0.126707 -0.000293313 0.0
0.159285 -0.000377139 0.0
0.0468021 -6.93975e-05 0.0
0 0 0.0
0.0891312 -0.000192125 0.0
0.161209 -0.000610671 0.0
0.188521 -0.000807064 0.0
0.228002 -0.00104228 0.0
0.240233 -0.00107641 0.0
0.247507 -0.000995387 0.0
0.247147 -0.000845456 0.0
0.24981 -0.000933479 0.0
0.239514 -0.00074552 0.0
0.226918 -0.000637686 0.0
0.186784 -0.000449782 0.0
0.209342 -0.00053748 0.0
0.21077 -0.000963569 0.0
0 0 0.0
0.0482466 -5.00881e-05 0.0
0.0912758 -0.000218127 0.0
0.161444 -0.000747036 0.0
0.128962 -0.000458195 0.0
0.12662 -0.00029966 0.0
0.159224 -0.00037731 0.0
0.0466829 -7.5468e-05 0.0
0 0 0.0
0.0890227 -0.00020182 0.0
0.210866 -0.00111379 0.0
0.188656 -0.000930853 0.0
0.240222 -0.00120597 0.0
0.228042 -0.00122681 0.0
0.24742 -0.00118536 0.0
0.24972 -0.00103281 0.0
0.24706 -0.000897859 0.0
0.239393 -0.000780719 0.0
0.22682 -0.000644777 0.0
0.18672 -0.00043293 0.0
0.159143 -0.000347016 0.0
0.209239 -0.000522024 0.0
0 0 0.0
0.0915058 -0.000287683 0.0
0.0483796 -6.84666e-05 0.0
0.161658 -0.000896901 0.0
0.1293 -0.000617527 0.0
0.12654 -0.000282387 0.0
0 0 0.0
0.0465603 -7.78987e-05 0.0
0.088901 -0.000196082 0.0
0.210966 -0.00129356 0.0
0.188904 -0.00119913 0.0
0.240193 -0.00135041 0.0
0.228074 -0.00144801 0.0
0.247335 -0.00131102 0.0
0.24959 -0.00114415 0.0
0.246956 -0.000952093 0.0
0.159088 -0.000297228 0.0
0.209136 -0.000487639 0.0
0.239234 -0.000806154 0.0
0.226705 -0.000639515 0.0
0.186628 -0.000381335 0.0
0 0 0.0
0.0485463 -9.45927e-05 0.0
0.0918228 -0.000395514 0.0
0.161959 -0.00113266 0.0
0.12966 -0.000811514 0.0
0.0888147 -0.000165237 0.0
0.126465 -0.00022232 0.0
0 0 0.0
0.0464414 -7.09997e-05 0.0
0.211074 -0.00155761 0.0
0.189118 -0.00147869 0.0
0.240127 -0.00156602 0.0
0.228079 -0.00171301 0.0
0.247235 -0.00144942 0.0
0.249421 -0.00126745 0.0
0.246687 -0.00104708 0.0
0.159026 -0.000192524 0.0
0.239032 -0.00082053 0.0
0.209012 -0.000430433 0.0
0.226465 -0.000596025 0.0
0.186499 -0.000259111 0.0
0 0 0.0
0.0922973 -0.000553748 0.0
0.0487953 -0.000142644 0.0
0.162374 -0.00150681 0.0
0.130102 -0.00106572 0.0
0.0887701 -0.00011016 0.0
0.126426 -0.000127737 0.0
0 0 0.0
0.0463461 -6.20287e-05 0.0
0.189342 -0.00182656 0.0
0.211174 -0.00188128 0.0
0.24002 -0.00182403 0.0
0.247054 -0.00164791 0.0
0.228051 -0.00202824 0.0
0.249186 -0.0014029 0.0
0.246422 -0.00111835 0.0
0.23877 -0.00082379 0.0
0.248534 -0.0016696 0.0
0.15896 -3.56145e-05 0.0
0.226221 -0.000535175 0.0
0.208768 -0.00028975 0.0
0.186395 -0.000148524 0.0
0 0 0.0
0.0927991 -0.000721289 0.0
0.0491468 -0.000196521 0.0
0.162681 -0.00181625 0.0
0.130638 -0.00137972 0.0
0.0887751 -2.46182e-05 0.0
0.126416 -7.00396e-06 0.0
0 0 0.0
0.046298 -4.07231e-05 0.0
0.18957 -0.00224524 0.0
0.211251 -0.00226993 0.0
0.239849 -0.00211479 0.0
0.22798 -0.00240276 0.0
0.246663 -0.00199342 0.0
0.248179 -0.0013482 0.0
0.242951 -0.000993082 0.0
0.232855 -0.000636126 0.0
0.248694 -0.0016377 0.0
0.1589 0.000180867 0.0
0.217881 -0.000305235 0.0
0.203426 -8.27676e-05 0.0
0.1862 0.000100216 0.0
0 0 0.0
0.093502 -0.00094406 0.0
0.0496002 -0.000261694 0.0
0.163116 -0.00226892 0.0
0.131287 -0.00175282 0.0
0.126469 0.000215593 0.0
0.0888627 9.28968e-05 0.0
0 0 0.0
0.046313 -3.4843e-06 0.0
0.189798 -0.00273916 0.0
0.211299 -0.00272552 0.0
0.246293 -0.00226359 0.0
0.227851 -0.00283072 0.0
0.239621 -0.00245915 0.0
0.245865 -0.00123179 0.0
0.23819 -0.000798397 0.0
0.225672 -0.000376693 0.0
0.248247 -0.0018166 0.0
0.158834 0.000449125 0.0
0.2083 3.19221e-06 0.0
0.185984 0.000355388 0.0
0 0 0.0
0.0501615 -0.000334653 0.0
0.0943665 -0.00119495 0.0
0.131952 -0.00211308 0.0
0.190026 -0.0033015 0.0
0.163602 -0.00278621 0.0
0.126572 0.000459356 0.0
0.0890447 0.000237091 0.0
0.0463881 3.93054e-05 0.0
0 0 0.0
0.227696 -0.00323227 0.0
0.211307 -0.00325096 0.0
0.245937 -0.00250173 0.0
0.2393 -0.00285052 0.0
0.225225 -0.000244291 0.0
0.245382 -0.00130572 0.0
0.237704 -0.000768619 0.0
0.247698 -0.00201582 0.0
0.185733 0.000660885 0.0
0.158776 0.000840246 0.0
0.20781 0.000298616 0.0
0 0 0.0
0.0509068 -0.000423505 0.0
0.0955581 -0.00148855 0.0
0.132874 -0.00258222 0.0
0.190193 -0.00377853 0.0
0.164286 -0.00349661 0.0
0.126762 0.00073868 0.0
0.0893885 0.000426277 0.0
0.0465713 9.21073e-05 0.0
0 0 0.0
0.127055 0.00104867 0.0
0.227489 -0.00366151 0.0
0.211254 -0.00403643 0.0
0.238707 -0.00348226 0.0
0.245518 -0.00275793 0.0
0.224456 -3.03423e-05 0.0
0.237109 -0.000728189 0.0
0.244784 -0.00138987 0.0
0.247018 -0.00224266 0.0
0.185425 0.00100777 0.0
0.158728 0.00120037 0.0
0.207314 0.000559897 0.0
0 0 0.0
0.0518032 -0.000506804 0.0
0.0968722 -0.00178377 0.0
0.133952 -0.00307787 0.0
0.190425 -0.00444953 0.0
0.16494 -0.00413772 0.0
0.0468302 0.000142044 0.0
0.0898318 0.000600546 0.0
0 0 0.0
0.127366 0.00131938 0.0
0.227161 -0.00424863 0.0
0.211151 -0.00470862 0.0
0.238144 -0.00398736 0.0
0.244864 -0.00313232 0.0
0.223866 0.000102727 0.0
0.23639 -0.000687228 0.0
0.24621 -0.00249422 0.0
0.243699 -0.0015332 0.0
0.185153 0.00128251 0.0
0.158706 0.00157501 0.0
0.206735 0.000846809 0.0
0 0 0.0
0.0528823 -0.000605878 0.0
0.0984107 -0.00208898 0.0
0.135424 -0.00367893 0.0
0.190731 -0.00536809 0.0
0.211004 -0.00543908 0.0
0.165702 -0.00481725 0.0
0.0471965 0.000195979 0.0
0.0904165 0.000776155 0.0
0 0 0.0
0.127843 0.00162569 0.0
0.22659 -0.00511826 0.0
0.237619 -0.00443323 0.0
0.244086 -0.00354343 0.0
0.245504 -0.00271004 0.0
0.223203 0.000251085 0.0
0.235521 -0.000662297 0.0
0.242759 -0.0016517 0.0
0.158725 0.00195651 0.0
0.184755 0.00165358 0.0
0.206042 0.00113897 0.0
0 0 0.0
0.0541742 -0.00071644 0.0
0.100192 -0.0024021 0.0
0.136928 -0.00421603 0.0
0.190923 -0.00595363 0.0
0.210807 -0.00621129 0.0
0.166581 -0.0055246 0.0
0.0476691 0.000240526 0.0
0.0911526 0.000947185 0.0
0 0 0.0
0.158754 0.00224806 0.0
0.0920213 0.0011062 0.0
0.128517 0.0019446 0.0
0.226043 -0.00584703 0.0
0.237008 -0.00489958 0.0
0.242709 -0.00421427 0.0
0.244717 -0.00293765 0.0
0.241939 -0.00176846 0.0
0.222273 0.000424595 0.0
0.234077 -0.000636258 0.0
0.184194 0.0021151 0.0
0.205371 0.0013799 0.0
0.225541 -0.00646698 0.0
0 0 0.0
0.0555914 -0.000809732 0.0
0.138665 -0.00475363 0.0
0.102195 -0.00271512 0.0
0.210578 -0.0070429 0.0
0.191309 -0.00697133 0.0
0.167588 -0.00624518 0.0
0.0482821 0.0002962 0.0
0 0 0.0
0.183814 0.00236265 0.0
0.158852 0.00258108 0.0
0.129254 0.00216564 0.0
0.0488633 0.000336291 0.0
0.0930098 0.00122248 0.0
0.236148 -0.00553437 0.0
0.241835 -0.00461785 0.0
0.243523 -0.00328126 0.0
0.242522 -0.00357247 0.0
0.241007 -0.00189177 0.0
0.221188 0.000571177 0.0
0.232824 -0.000649419 0.0
0.204626 0.00161762 0.0
0.224962 -0.00712564 0.0
0.0570769 -0.000901775 0.0
0 0 0.0
0.140288 -0.0052055 0.0
0.104419 -0.00300948 0.0
0.21032 -0.00791165 0.0
0.191572 -0.00760393 0.0
0.168758 -0.00698111 0.0
0 0 0.0
0.183319 0.0026763 0.0
0.159036 0.00289401 0.0
0.129937 0.00232058 0.0
0.0495392 0.000349967 0.0
0.0940628 0.00129781 0.0
0.234716 -0.00652102 0.0
0.240887 -0.0050413 0.0
0.241419 -0.00387786 0.0
0.239016 -0.0021763 0.0
0.219976 0.00070477 0.0
0.23144 -0.000687987 0.0
0.20336 0.00192791 0.0
0.224203 -0.00797978 0.0
0 0 0.0
0.0588431 -0.000984113 0.0
0.142417 -0.00572767 0.0
0.106636 -0.0032702 0.0
0.170083 -0.00770964 0.0
0.210046 -0.00883366 0.0
0.192121 -0.00868166 0.0
0 0 0.0
0 0 0.0
0.182794 0.00290928 0.0
0.159298 0.00306503 0.0
0.130856 0.00241867 0.0
0.0951908 0.00131852 0.0
0.0502545 0.000348389 0.0
0.23354 -0.00729004 0.0
0.239506 -0.00564631 0.0
0.230193 -0.000747806 0.0
0.239808 -0.0043352 0.0
0.237403 -0.00243733 0.0
0.218611 0.000792172 0.0
0.202272 0.00211316 0.0
0.232502 -0.00795865 0.0
0.223349 -0.00888856 0.0
0.0607924 -0.00107749 0.0
0.109296 -0.00354998 0.0
0.144783 -0.00625013 0.0
0.171312 -0.00830896 0.0
0.209785 -0.00978851 0.0
0.192515 -0.00936366 0.0
0 0 0.0
0 0 0.0
0.159531 0.0031344 0.0
0.182175 0.00309817 0.0
0.0962093 0.00129149 0.0
0.131975 0.00241861 0.0
0.0509292 0.000335357 0.0
0.237239 -0.00659835 0.0
0.238 -0.00485251 0.0
0.201133 0.00223074 0.0
0.228848 -0.000827148 0.0
0.236048 -0.00267394 0.0
0.216568 0.000840033 0.0
0.231392 -0.00864111 0.0
0.222116 -0.0102027 0.0
0.209529 -0.0107921 0.0
0.0629394 -0.00119539 0.0
0.112176 -0.00383569 0.0
0.147782 -0.00683938 0.0
0.17299 -0.00904295 0.0
0.193327 -0.0105103 0.0
0 0 0.0
0 0 0.0
0.160007 0.00309385 0.0
0.181726 0.00310971 0.0
0.0974521 0.00117911 0.0
0.133018 0.00230086 0.0
0.0516365 0.000310318 0.0
0.234571 -0.00293933 0.0
0.23602 -0.00541669 0.0
0.235456 -0.00735441 0.0
0.199951 0.00226985 0.0
0.227021 -0.000986772 0.0
0.214896 0.000788324 0.0
0.181347 0.00298718 0.0
0.229248 -0.00995103 0.0
0 0 0.0
0.221102 -0.0112641 0.0
0.19414 -0.0114643 0.0
0.209306 -0.0118349 0.0
0.0650678 -0.00128272 0.0
0.150264 -0.00728457 0.0
0.115588 -0.00417721 0.0
0.1753 -0.00996396 0.0
0 0 0.0
0 0 0.0
0 0 0.0
0 0 0.0
0 0 0.0
0.0522013 0.000262823 0.0
0.13409 0.00205764 0.0
0.160512 0.00288941 0.0
0.0983878 0.00103362 0.0
0.232504 -0.0033171 0.0
0.233847 -0.00605348 0.0
0.233519 -0.00817316 0.0
0.213445 0.000699002 0.0
0.19874 0.00218864 0.0
0.224178 -0.00130664 0.0
0.197733 0.0020143 0.0
0.1811 0.00279519 0.0
0.227553 -0.0109835 0.0
0.220048 -0.0123619 0.0
0 0 0.0
4.81895e-05 -8.06014e-07 0.0
0 0 0.0
-0.000592846 0.00473737 0.0
0.20915 -0.0129265 0.0
0.194856 -0.0121899 0.0
0.0675954 -0.00140555 0.0
0.153321 -0.00782752 0.0
0.118916 -0.00452331 0.0
0.177496 -0.0107677 0.0
0 0 0.0
0 0 0.0
0 0 0.0
-0.000492747 0.00303839 0.0
-0.000161021 0.000206452 0.0
-0.000283997 0.000264389 0.0
0 0 0.0
0.0526422 0.000187804 0.0
0.134938 0.00177104 0.0
0.16106 0.00252818 0.0
0.0993576 0.000792232 0.0
0.230264 -0.00377723 0.0
0.231488 -0.0067564 0.0
0.231409 -0.00905033 0.0
0.211961 0.000532206 0.0
0.222432 -0.00157565 0.0
0.196749 0.00173376 0.0
0.180796 0.00223939 0.0
0.225758 -0.0120614 0.0
0.221075 -0.0131387 0.0
0.214477 -0.0137421 0.0
0 0 0.0
-0.000185102 0.000139974 0.0
0 0 0.0
0 0 0.0
-0.00199538 0.00956485 0.0
-0.00215858 0.0069754 0.0
0.206066 -0.0138303 0.0
0.195927 -0.0132093 0.0
0.122103 -0.00488313 0.0
0.070095 -0.00156119 0.0
0.156612 -0.00844389 0.0
0.179856 -0.0116224 0.0
0 0 0.0
-0.00107058 0.00208738 0.0
-0.00166707 0.00424639 0.0
-0.000944949 0.00116175 0.0
-0.00120586 0.000884119 0.0
0 0 0.0
0.0529667 0.000106416 0.0
0.135863 0.00131879 0.0
0.161634 0.0020099 0.0
0.100058 0.000508598 0.0
0.227837 -0.00430472 0.0
0.228957 -0.00753008 0.0
0.229137 -0.00999278 0.0
0.209426 6.60148e-05 0.0
0.220598 -0.00189308 0.0
0.195661 0.00120578 0.0
0.162251 0.00130076 0.0
0.18069 0.0015568 0.0
0.224248 -0.0129496 0.0
0.218245 -0.014301 0.0
0.209007 -0.0149131 0.0
0 0 0.0
-0.00110138 0.000386532 0.0
0 0 0.0
0 0 0.0
0 0 0.0
0 0 0.0
-0.00416902 0.00728629 0.0
-0.000473261 0.00763743 0.0
-0.00188736 0.0116514 0.0
-0.00456565 0.0148563 0.0
-0.00421769 0.0109784 0.0
0 0 0.0
4.95437e-05 0.00933057 0.0
0.197443 -0.0145945 0.0
0.181918 -0.0123927 0.0
0 0 0.0
0.0731539 -0.00180193 0.0
0.125901 -0.00536756 0.0
0.160689 -0.00936714 0.0
0 0 0.0
0 0 0.0
-0.00294481 0.00412813 0.0
-0.00271768 0.00252233 0.0
-0.00297498 0.00158152 0.0
0 0 0.0
0.0531057 6.13189e-06 0.0
0.136735 0.000666168 0.0
0.100485 0.000182703 0.0
0.162626 0.00065079 0.0