# vtk DataFile Version 3.0
Mesh NS-CD Problem
ASCII
DATASET UNSTRUCTURED_GRID
POINTS 10839 float
-2 0.3 0.0
-2 0.4 0.0
-2 0.35 0.0
-2 0.45 0.0
-2 0.5 0.0
-2 0.55 0.0
-2 0 0.0
-2 0.05 0.0
-2 0.85 0.0
-2 0.9 0.0
-2 0.1 0.0
-2 0.15 0.0
-2 0.25 0.0
-2 0.2 0.0
-1.96653 0.266667 0.0
-1.96524 0.415385 0.0
-1.96485 0.315 0.0
-1.96348 0.363636 0.0
-1.96414 0.464286 0.0
-2 0.6 0.0
-1.96538 0.584615 0.0
-1.96538 0.538462 0.0
-1.94979 0 0.0
-1.96653 0.0666666 0.0
-1.93306 0.0333333 0.0
-2 0.8 0.0
-2 0.75 0.0
-2 0.7 0.0
-2 0.65 0.0
-1.96249 0.7375 0.0
-1.96666 0.833333 0.0
-2 1 0.0
-2 0.95 0.0
-1.96249 0.8875 0.0
-1.96666 0.933333 0.0
-1.96234 0.1125 0.0
-1.96653 0.166667 0.0
-1.93724 0.225 0.0
-1.92971 0.28 0.0
-1.93048 0.380769 0.0
-1.93048 0.423077 0.0
-1.89958 0.3375 0.0
-1.9292 0.484203 0.0
-1.92117 0.530907 0.0
-1.96363 0.636364 0.0
-1.93076 0.576923 0.0
-1.89958 0 0.0
-1.88703 0.0375 0.0
-1.90963 0.08 0.0
-1.86611 0.0666666 0.0
-1.93749 0.775 0.0
-1.93635 0.672727 0.0
-1.92999 0.72 0.0
-1.93332 0.866667 0.0
-1.92856 0.821429 0.0
-1.94999 1 0.0
-1.92499 0.9625 0.0
-1.92499 0.925 0.0
-1.89998 0.9 0.0
-1.89958 0.125 0.0
-1.92827 0.178571 0.0
-1.89958 0.233333 0.0
-1.89045 0.290909 0.0
-1.86096 0.311538 0.0
-1.89241 0.392857 0.0
-1.89334 0.448489 0.0
-1.85655 0.357143 0.0
-1.89614 0.653846 0.0
-1.89427 0.504121 0.0
-1.8952 0.559753 0.0
-1.89614 0.615385 0.0
-1.84937 0 0.0
-1.83264 0.0333333 0.0
-1.85655 0.107143 0.0
-1.81172 0.075 0.0
-1.89998 0.766667 0.0
-1.89089 0.709091 0.0
-1.87498 0.85 0.0
-1.85998 0.79 0.0
-1.88748 0.8125 0.0
-1.89998 1 0.0
-1.88748 0.9625 0.0
-1.86664 0.933333 0.0
-1.85712 0.892857 0.0
-1.87448 0.15 0.0
-1.86611 0.194444 0.0
-1.83264 0.133333 0.0
-1.83264 0.2625 0.0
-1.82068 0.321429 0.0
-1.85664 0.404762 0.0
-1.85674 0.452381 0.0
-1.85683 0.5 0.0
-1.81184 0.375 0.0
-1.85712 0.642857 0.0
-1.85693 0.547619 0.0
-1.85702 0.595238 0.0
-1.79917 0 0.0
-1.78482 0.0357143 0.0
-1.79917 0.116667 0.0
-1.76569 0.0666666 0.0
-1.85452 0.745455 0.0
-1.82689 0.692308 0.0
-1.81815 0.781818 0.0
-1.82497 0.825 0.0
-1.84997 1 0.0
-1.8333 0.958333 0.0
-1.81247 0.8875 0.0
-1.81247 0.925 0.0
-1.81742 0.218182 0.0
-1.82427 0.175 0.0
-1.77634 0.145455 0.0
-1.79144 0.242308 0.0
-1.78482 0.285714 0.0
-1.77469 0.332653 0.0
-1.81215 0.529762 0.0
-1.81194 0.422619 0.0
-1.81203 0.470238 0.0
-1.76714 0.392857 0.0
-1.81234 0.625 0.0
-1.79732 0.571429 0.0
-1.74896 0 0.0
-1.73222 0.0333333 0.0
-1.75398 0.105 0.0
-1.71883 0.07 0.0
-1.79227 0.730769 0.0
-1.78007 0.679121 0.0
-1.75765 0.769231 0.0
-1.78178 0.818182 0.0
-1.78996 0.86 0.0
-1.79996 1 0.0
-1.78568 0.964286 0.0
-1.76663 0.922222 0.0
-1.76569 0.1875 0.0
-1.73222 0.15 0.0
-1.74896 0.25 0.0
-1.73714 0.304762 0.0
-1.76743 0.537202 0.0
-1.72869 0.343878 0.0
-1.76732 0.485119 0.0
-1.76723 0.440476 0.0
-1.72243 0.410714 0.0
-1.76757 0.607143 0.0
-1.69875 0 0.0
-1.68369 0.035 0.0
-1.69875 0.1125 0.0
-1.66528 0.075 0.0
-1.74341 0.708974 0.0
-1.73324 0.665934 0.0
-1.70441 0.74478 0.0
-1.71423 0.785714 0.0
-1.72303 0.826923 0.0
-1.74541 0.854545 0.0
-1.74541 0.890909 0.0
-1.74996 1 0.0
-1.73745 0.9625 0.0
-1.71359 0.927273 0.0
-1.68716 0.153846 0.0
-1.7131 0.214286 0.0
-1.70725 0.275 0.0
-1.69712 0.321939 0.0
-1.72279 0.589286 0.0
-1.72261 0.5 0.0
-1.7227 0.544643 0.0
-1.6827 0.355102 0.0
-1.67773 0.428571 0.0
-1.70763 0.464286 0.0
-1.70369 0.62449 0.0
-1.64854 0 0.0
-1.63181 0.0375 0.0
-1.64137 0.142857 0.0
-1.61764 0.0769231 0.0
-1.69458 0.703846 0.0
-1.67471 0.657437 0.0
-1.66143 0.727637 0.0
-1.67125 0.768571 0.0
-1.67851 0.821429 0.0
-1.68841 0.861538 0.0
-1.70904 0.890909 0.0
-1.69995 1 0.0
-1.68176 0.963636 0.0
-1.67267 0.927273 0.0
-1.65427 0.187143 0.0
-1.66718 0.231429 0.0
-1.66554 0.3 0.0
-1.67802 0.571429 0.0
-1.67792 0.523809 0.0
-1.6367 0.366327 0.0
-1.63682 0.423469 0.0
-1.62568 0.502976 0.0
-1.6629 0.470238 0.0
-1.65254 0.618367 0.0
-1.6059 0.307143 0.0
-1.59833 0 0.0
-1.58288 0.0384615 0.0
-1.60563 0.169643 0.0
-1.58179 0.112271 0.0
-1.56964 0.0714286 0.0
-1.64574 0.690385 0.0
-1.62827 0.751429 0.0
-1.63371 0.791071 0.0
-1.64279 0.857143 0.0
-1.65378 0.896154 0.0
-1.64994 1 0.0
-1.6363 0.963636 0.0
-1.61916 0.930769 0.0
-1.61345 0.209107 0.0
-1.62126 0.248571 0.0
-1.56989 0.196429 0.0
-1.63324 0.553571 0.0
-1.58846 0.535714 0.0
-1.59408 0.361905 0.0
-1.59161 0.402211 0.0
-1.58832 0.464286 0.0
-1.61504 0.598581 0.0
-1.59683 0.64359 0.0
-1.57899 0.274107 0.0
-1.56176 0.322381 0.0
-1.54812 0 0.0
-1.53378 0.0357143 0.0
-1.54593 0.147619 0.0
-1.53385 0.0732143 0.0
-1.53393 0.110714 0.0
-1.58522 0.704286 0.0
-1.58709 0.745 0.0
-1.58896 0.785714 0.0
-1.60695 0.830357 0.0
-1.60707 0.892857 0.0
-1.59993 1 0.0
-1.58454 0.965385 0.0
-1.57135 0.928571 0.0
-1.55209 0.241071 0.0
-1.5291 0.198214 0.0
-1.56936 0.570918 0.0
-1.54369 0.517857 0.0
-1.5464 0.380952 0.0
-1.54564 0.427721 0.0
-1.54488 0.47449 0.0
-1.55026 0.606122 0.0
-1.54222 0.677143 0.0
-1.52943 0.282857 0.0
-1.52143 0.33619 0.0
-1.49792 0 0.0
-1.49802 0.05 0.0
-1.49822 0.15 0.0
-1.49312 0.1 0.0
-1.5423 0.717143 0.0
-1.54419 0.767857 0.0
-1.54727 0.819048 0.0
-1.57122 0.861905 0.0
-1.53553 0.914286 0.0
-1.54992 1 0.0
-1.53563 0.964286 0.0
-1.49842 0.25 0.0
-1.48831 0.2 0.0
-1.5214 0.558929 0.0
-1.49891 0.5 0.0
-1.49871 0.4 0.0
-1.47631 0.45 0.0
-1.49911 0.6 0.0
-1.49921 0.65 0.0
-1.49931 0.7 0.0
-1.48111 0.35 0.0
-1.48351 0.3 0.0
-1.44771 0 0.0
-1.44782 0.05 0.0
-1.44804 0.15 0.0
-1.44793 0.1 0.0
-1.49941 0.75 0.0
-1.49951 0.8 0.0
-1.49981 0.95 0.0
-1.49961 0.85 0.0
-1.49971 0.9 0.0
-1.49991 1 0.0
-1.44826 0.25 0.0
-1.43815 0.2 0.0
-1.47151 0.55 0.0
-1.44881 0.5 0.0
-1.44859 0.4 0.0
-1.42619 0.45 0.0
-1.44913 0.65 0.0
-1.44902 0.6 0.0
-1.44935 0.75 0.0
-1.44924 0.7 0.0
-1.43972 0.35 0.0
-1.43336 0.3 0.0
-1.3975 0 0.0
-1.39762 0.05 0.0
-1.39786 0.15 0.0
-1.39274 0.1 0.0
-1.44957 0.85 0.0
-1.44946 0.8 0.0
-1.4523 0.95 0.0
-1.44968 0.9 0.0
-1.4499 1 0.0
-1.3981 0.25 0.0
-1.38798 0.2 0.0
-1.42141 0.55 0.0
-1.3987 0.5 0.0
-1.39834 0.35 0.0
-1.37845 0.4 0.0
-1.37607 0.45 0.0
-1.40784 0.65 0.0
-1.39894 0.6 0.0
-1.41185 0.75 0.0
-1.39918 0.7 0.0
-1.38322 0.3 0.0
-1.34729 0 0.0
-1.34492 0.05 0.0
-1.34018 0.15 0.0
-1.34255 0.1 0.0
-1.40707 0.85 0.0
-1.39941 0.8 0.0
-1.39977 0.95 0.0
-1.39965 0.9 0.0
-1.39989 1 0.0
-1.33781 0.2 0.0
-1.33544 0.25 0.0
-1.37131 0.55 0.0
-1.34859 0.5 0.0
-1.33833 0.4 0.0
-1.3307 0.35 0.0
-1.32595 0.45 0.0
-1.34885 0.6 0.0
-1.36655 0.65 0.0
-1.36179 0.75 0.0
-1.34911 0.7 0.0
-1.33307 0.3 0.0
-1.29708 0 0.0
-1.29722 0.05 0.0
-1.2975 0.15 0.0
-1.29236 0.1 0.0
-1.35703 0.85 0.0
-1.34937 0.8 0.0
-1.34988 1 0.0
-1.34962 0.9 0.0
-1.35226 0.95 0.0
-1.28528 0.25 0.0
-1.28764 0.2 0.0
-1.28931 0.35 0.0
-1.32121 0.55 0.0
-1.29848 0.5 0.0
-1.28709 0.45 0.0
-1.2982 0.4 0.0
-1.29876 0.6 0.0
-1.31647 0.65 0.0
-1.29918 0.75 0.0
-1.29904 0.7 0.0
-1.28292 0.3 0.0
-1.24687 0 0.0
-1.24702 0.05 0.0
-1.24717 0.1 0.0
-1.24732 0.15 0.0
-1.29946 0.85 0.0
-1.29932 0.8 0.0
-1.29987 1 0.0
-1.29974 0.95 0.0
-1.30462 0.9 0.0
-1.24762 0.25 0.0
-1.23747 0.2 0.0
-1.24792 0.35 0.0
-1.22807 0.4 0.0
-1.27111 0.55 0.0
-1.24837 0.5 0.0
-1.24822 0.45 0.0
-1.24867 0.6 0.0
-1.26639 0.65 0.0
-1.26167 0.75 0.0
-1.24897 0.7 0.0
-1.23277 0.3 0.0
-1.19667 0 0.0
-1.19683 0.05 0.0
-1.18964 0.15 0.0
-1.19198 0.1 0.0
-1.25695 0.85 0.0
-1.24927 0.8 0.0
-1.25223 0.95 0.0
-1.24987 1 0.0
-1.24957 0.9 0.0
-1.1873 0.2 0.0
-1.18496 0.25 0.0
-1.18028 0.35 0.0
-1.17794 0.4 0.0
-1.1981 0.45 0.0
-1.19842 0.55 0.0
-1.19826 0.5 0.0
-1.19858 0.6 0.0
-1.19874 0.65 0.0
-1.19906 0.75 0.0
-1.1989 0.7 0.0
-1.18262 0.3 0.0
-1.14646 0 0.0
-1.14663 0.05 0.0
-1.1418 0.1 0.0
-1.13713 0.2 0.0
-1.14697 0.15 0.0
-1.20691 0.85 0.0
-1.20926 0.8 0.0
-1.20221 0.95 0.0
-1.19986 1 0.0
-1.20456 0.9 0.0
-1.13997 0.3 0.0
-1.14731 0.25 0.0
-1.13781 0.4 0.0
-1.13014 0.35 0.0
-1.12548 0.45 0.0
-1.14815 0.5 0.0
-1.15962 0.55 0.0
-1.14849 0.6 0.0
-1.15745 0.65 0.0
-1.16155 0.75 0.0
-1.14917 0.8 0.0
-1.14883 0.7 0.0
-1.09625 0 0.0
-1.09661 0.1 0.0
-1.09393 0.05 0.0
-1.09697 0.2 0.0
-1.08929 0.15 0.0
-1.15687 0.85 0.0
-1.14985 1 0.0
-1.15219 0.95 0.0
-1.14951 0.9 0.0
-1.09733 0.3 0.0
-1.08465 0.25 0.0
-1.09769 0.4 0.0
-1.08 0.35 0.0
-1.08661 0.45 0.0
-1.09804 0.5 0.0
-1.12082 0.55 0.0
-1.10916 0.8 0.0
-1.10629 0.7 0.0
-1.0984 0.6 0.0
-1.11616 0.65 0.0
-1.11149 0.75 0.0
-1.04604 0 0.0
-1.04623 0.05 0.0
-1.04642 0.1 0.0
-1.0468 0.2 0.0
-1.03911 0.15 0.0
-1.09948 0.9 0.0
-1.0993 0.85 0.0
-1.09984 1 0.0
-1.09966 0.95 0.0
-1.04718 0.3 0.0
-1.03449 0.25 0.0
-1.04756 0.4 0.0
-1.02986 0.35 0.0
-1.04775 0.45 0.0
-1.04794 0.5 0.0
-1.04813 0.55 0.0
-1.05911 0.8 0.0
-1.04831 0.6 0.0
-1.06376 0.7 0.0
-1.0485 0.65 0.0
-1.04888 0.75 0.0
-0.995833 0 0.0
-0.991231 0.1 0.0
-0.996033 0.05 0.0
-0.986629 0.2 0.0
-0.98893 0.15 0.0
-1.05447 0.9 0.0
-1.04926 0.85 0.0
-1.04983 1 0.0
-1.04964 0.95 0.0
-0.984328 0.25 0.0
-0.99703 0.3 0.0
-0.997429 0.4 0.0
-0.997628 0.45 0.0
-0.979726 0.35 0.0
-0.997827 0.5 0.0
-0.998027 0.55 0.0
-0.998226 0.6 0.0
-0.961416 0.475 0.0
-1.00907 0.8 0.0
-0.998426 0.65 0.0
-0.998625 0.7 0.0
-1.01138 0.75 0.0
-0.945625 0 0.0
-0.946044 0.1 0.0
-0.943334 0.05 0.0
-0.946463 0.2 0.0
-0.938752 0.15 0.0
-1.00444 0.9 0.0
-1.00675 0.85 0.0
-0.999821 1 0.0
-1.00213 0.95 0.0
-0.93417 0.25 0.0
-0.946881 0.3 0.0
-0.9473 0.4 0.0
-0.929588 0.35 0.0
-0.925005 0.45 0.0
-0.960371 0.525 0.0
-0.959325 0.575 0.0
-0.958279 0.625 0.0
-0.922714 0.5 0.0
-0.959017 0.8 0.0
-0.957233 0.675 0.0
-0.952999 0.7125 0.0
-0.948766 0.75 0.0
-0.895417 0 0.0
-0.895855 0.1 0.0
-0.893136 0.05 0.0
-0.896294 0.2 0.0
-0.888573 0.15 0.0
-0.949184 0.85 0.0
-0.954415 0.9 0.0
-0.949812 1 0.0
-0.949603 0.95 0.0
-0.884011 0.25 0.0
-0.896733 0.3 0.0
-0.874887 0.45 0.0
-0.879449 0.35 0.0
-0.897171 0.4 0.0
-0.920423 0.55 0.0
-0.918132 0.6 0.0
-0.915841 0.65 0.0
-0.872606 0.5 0.0
-0.908968 0.8 0.0
-0.91355 0.7 0.0
-0.898707 0.75 0.0
-0.845208 0 0.0
-0.845438 0.05 0.0
-0.845667 0.1 0.0
-0.845896 0.15 0.0
-0.833853 0.25 0.0
-0.846126 0.2 0.0
-0.899146 0.85 0.0
-0.904386 0.9 0.0
-0.899584 0.95 0.0
-0.899804 1 0.0
-0.838062 0.35 0.0
[...]
POINT_DATA 10839
VECTORS Velocity float
0.21 0 0.0
0.24 0 0.0
0.2275 0 0.0
0.2475 0 0.0
0.25 0 0.0
0.2475 0 0.0
0 0 0.0
0.0475 0 0.0
0.1275 0 0.0
0.09 0 0.0
0.09 0 0.0
0.1275 0 0.0
0.1875 0 0.0
0.16 0 0.0
0.195557 -2.43539e-05 0.0
0.242841 -3.32189e-05 0.0
0.215776 -2.89862e-05 0.0
0.231406 -3.26757e-05 0.0
0.248725 -3.53681e-05 0.0
0.24 0 0.0
0.24284 -3.31445e-05 0.0
0.24852 -3.40609e-05 0.0
0 0 0.0
0.0622239 -4.24709e-06 0.0
0.032227 -2.80769e-06 0.0
0.16 0 0.0
0.1875 0 0.0
0.21 0 0.0
0.2275 0 0.0
0.193592 -2.73369e-05 0.0
0.138887 -1.51812e-05 0.0
0 0 0.0
0.0475 0 0.0
0.0998415 -1.05466e-05 0.0
0.0622205 -4.29473e-06 0.0
0.0998462 -1.102e-05 0.0
0.138891 -1.53163e-05 0.0
0.17438 -3.83871e-05 0.0
0.201606 -5.25818e-05 0.0
0.235787 -6.41978e-05 0.0
0.244085 -6.71741e-05 0.0
0.223602 -8.60653e-05 0.0
0.249751 -7.01827e-05 0.0
0.249044 -7.8206e-05 0.0
0.231404 -3.32061e-05 0.0
0.244081 -6.63792e-05 0.0
0 0 0.0
0.0361083 -5.4333e-06 0.0
0.0736128 -1.51867e-05 0.0
0.0622495 -1.66463e-05 0.0
0.17437 -3.78227e-05 0.0
0.220162 -5.25608e-05 0.0
0.201594 -5.26603e-05 0.0
0.115548 -2.26819e-05 0.0
0.146676 -3.5144e-05 0.0
0 0 0.0
0.0360873 -3.65938e-06 0.0
0.069366 -1.18721e-05 0.0
0.0899832 -2.35658e-05 0.0
0.109391 -3.18785e-05 0.0
0.146692 -3.44642e-05 0.0
0.178902 -6.43803e-05 0.0
0.206293 -8.41861e-05 0.0
0.214501 -0.000113466 0.0
0.238527 -0.000100645 0.0
0.24735 -0.000104804 0.0
0.229607 -0.000128124 0.0
0.226323 -9.04342e-05 0.0
0.249983 -0.000105323 0.0
0.246426 -0.000102467 0.0
0.23668 -9.64736e-05 0.0
0 0 0.0
0.0322509 -6.14522e-06 0.0
0.095697 -3.62153e-05 0.0
0.06943 -2.7301e-05 0.0
0.178876 -6.3401e-05 0.0
0.206269 -8.48234e-05 0.0
0.127476 -4.88866e-05 0.0
0.165873 -8.02535e-05 0.0
0.152325 -5.74593e-05 0.0
0 0 0.0
0.0360794 -5.26239e-06 0.0
0.0621954 -1.64698e-05 0.0
0.0956295 -3.69001e-05 0.0
0.127525 -4.93584e-05 0.0
0.156661 -7.17121e-05 0.0
0.115601 -5.66867e-05 0.0
0.193627 -0.000118308 0.0
0.218142 -0.000149729 0.0
0.24094 -0.000136519 0.0
0.247738 -0.000141585 0.0
0.25 -0.000143132 0.0
0.234398 -0.000173352 0.0
0.229576 -0.000126357 0.0
0.247727 -0.000141275 0.0
0.240919 -0.000136281 0.0
0 0 0.0
0.0344878 -8.51575e-06 0.0
0.103122 -5.57137e-05 0.0
0.0623041 -2.76663e-05 0.0
0.189727 -0.000100529 0.0
0.212988 -0.000140458 0.0
0.170533 -0.00010889 0.0
0.144329 -8.08105e-05 0.0
0 0 0.0
0.0398977 -9.06565e-06 0.0
0.0997855 -5.06374e-05 0.0
0.0693205 -2.68528e-05 0.0
0.170625 -0.000109013 0.0
0.144422 -8.25564e-05 0.0
0.124378 -8.37473e-05 0.0
0.18365 -0.000137843 0.0
0.204132 -0.000165052 0.0
0.222039 -0.000194358 0.0
0.249109 -0.000187972 0.0
0.244027 -0.000182957 0.0
0.24912 -0.000187979 0.0
0.238551 -0.000220776 0.0
0.234352 -0.000172339 0.0
0.244882 -0.000198173 0.0
0 0 0.0
0.0322927 -9.02397e-06 0.0
0.0940754 -5.85912e-05 0.0
0.0652188 -3.50233e-05 0.0
0.196695 -0.000150744 0.0
0.217871 -0.000185236 0.0
0.177437 -0.000153039 0.0
0.148689 -0.000106753 0.0
0.120328 -7.47187e-05 0.0
0 0 0.0
0.0343902 -8.59891e-06 0.0
0.0716432 -3.5128e-05 0.0
0.152425 -0.000119746 0.0
0.127616 -0.000104049 0.0
0.187579 -0.000171018 0.0
0.211952 -0.000213055 0.0
0.248605 -0.000233422 0.0
0.225686 -0.000241409 0.0
0.249783 -0.000235113 0.0
0.246474 -0.000231148 0.0
0.242065 -0.00027059 0.0
0.23849 -0.000220164 0.0
0 0 0.0
0.0338754 -1.13185e-05 0.0
0.0999949 -7.8319e-05 0.0
0.0695471 -4.66676e-05 0.0
0.206259 -0.000199472 0.0
0.222404 -0.000232553 0.0
0.189974 -0.000207339 0.0
0.168252 -0.000167428 0.0
0.143002 -0.000128408 0.0
0.124193 -9.47232e-05 0.0
0.0970827 -6.36139e-05 0.0
0 0 0.0
0.03602 -1.09595e-05 0.0
0.0673134 -3.76662e-05 0.0
0.130336 -0.00012581 0.0
0.168484 -0.000168226 0.0
0.199474 -0.000219491 0.0
0.218379 -0.000257627 0.0
0.241992 -0.000271263 0.0
0.25 -0.000283157 0.0
0.247988 -0.000279857 0.0
0.229082 -0.000290736 0.0
0.244938 -0.000322334 0.0
0.248741 -0.000297162 0.0
0.234444 -0.00027797 0.0
0 0 0.0
0.0362341 -1.46028e-05 0.0
0.122661 -0.000128949 0.0
0.0712319 -5.52347e-05 0.0
0.208348 -0.000244076 0.0
0.225125 -0.000290539 0.0
0.198046 -0.000253476 0.0
0.177723 -0.000209875 0.0
0.146524 -0.00015474 0.0
0.11913 -0.000108081 0.0
0.0970494 -7.21957e-05 0.0
0 0 0.0
0.0349376 -1.22777e-05 0.0
0.0672757 -4.24303e-05 0.0
0.152303 -0.000175939 0.0
0.178019 -0.000214817 0.0
0.210117 -0.00027178 0.0
0.244858 -0.000322262 0.0
0.24942 -0.000331058 0.0
0.232227 -0.000342121 0.0
0.244198 -0.00036682 0.0
0.249988 -0.000391564 0.0
0.249132 -0.000347873 0.0
0.235912 -0.00033303 0.0
0.212965 -0.000332008 0.0
0 0 0.0
0.0371634 -1.72131e-05 0.0
0.141113 -0.000179555 0.0
0.0999613 -0.000108572 0.0
0.066603 -5.38502e-05 0.0
0.213627 -0.000297086 0.0
0.186605 -0.00025866 0.0
0.165082 -0.000210485 0.0
0.122238 -0.000129676 0.0
0.0928634 -7.92292e-05 0.0
0 0 0.0
0.0349076 -1.37158e-05 0.0
0.0642239 -4.50808e-05 0.0
0.1656 -0.000224999 0.0
0.18697 -0.000264424 0.0
0.158127 -0.000235465 0.0
0.247091 -0.000376727 0.0
0.248691 -0.000433093 0.0
0.231053 -0.000384256 0.0
0.240527 -0.000410088 0.0
0.248758 -0.000432716 0.0
0.240202 -0.000383226 0.0
0.229254 -0.000376566 0.0
0.199185 -0.000325063 0.0
0.218637 -0.00038853 0.0
0 0 0.0
0.0346515 -1.68943e-05 0.0
0.126174 -0.000174559 0.0
0.0681823 -6.08693e-05 0.0
0.0988244 -0.000118268 0.0
0.20808 -0.000339922 0.0
0.189756 -0.000296379 0.0
0.168122 -0.000246013 0.0
0.140616 -0.000178224 0.0
0.0954055 -9.42894e-05 0.0
0 0 0.0
0.0332512 -1.40435e-05 0.0
0.0660525 -5.36974e-05 0.0
0.183227 -0.000307177 0.0
0.159267 -0.000263557 0.0
0.244897 -0.000446557 0.0
0.24966 -0.000490201 0.0
0.235963 -0.000449692 0.0
0.244859 -0.000475314 0.0
0.249378 -0.000489003 0.0
0.238619 -0.000452188 0.0
0.218417 -0.000408743 0.0
0.203108 -0.000379284 0.0
0.223373 -0.000444239 0.0
0 0 0.0
0.0478097 -3.37322e-05 0.0
0.127927 -0.000199053 0.0
0.0904295 -0.00011107 0.0
0.202605 -0.000365437 0.0
0.177962 -0.000300599 0.0
0.147883 -0.000225635 0.0
0.118715 -0.000147968 0.0
0.0780225 -7.91821e-05 0.0
0 0 0.0
0.0342289 -1.65521e-05 0.0
0.187836 -0.00036371 0.0
0.160406 -0.000293279 0.0
0.246451 -0.000510296 0.0
0.25 -0.000549799 0.0
0.240141 -0.000519164 0.0
0.247578 -0.000572333 0.0
0.239858 -0.000518788 0.0
0.227289 -0.000480376 0.0
0.209725 -0.000427423 0.0
0.227727 -0.000504138 0.0
0.210294 -0.000445305 0.0
0 0 0.0
0.0478739 -3.76322e-05 0.0
0.128023 -0.000222237 0.0
0.0905128 -0.000122138 0.0
0.187165 -0.000361877 0.0
0.159613 -0.000283732 0.0
0.0471943 -3.30808e-05 0.0
0.127077 -0.000196368 0.0
0.0895834 -0.000108765 0.0
0 0 0.0
0.187913 -0.000408725 0.0
0.160498 -0.00032826 0.0
0.247419 -0.000578881 0.0
0.249999 -0.000619418 0.0
0.240174 -0.000585271 0.0
0.247595 -0.000643389 0.0
0.227242 -0.000540847 0.0
0.239825 -0.000584158 0.0
0.187088 -0.000406532 0.0
0.209662 -0.000480894 0.0
0.227768 -0.000553406 0.0
0.21036 -0.000500537 0.0
0 0 0.0
0.0479447 -4.12632e-05 0.0
0.12813 -0.00024712 0.0
0.0906256 -0.000136988 0.0
0.126981 -0.000220077 0.0
0.159524 -0.000318369 0.0
0.0471342 -3.66882e-05 0.0
0.0894924 -0.000120898 0.0
0 0 0.0
0.188001 -0.000456449 0.0
0.160601 -0.00036595 0.0
0.247401 -0.000649694 0.0
0.249999 -0.00069392 0.0
0.227813 -0.000607044 0.0
0.240226 -0.000684451 0.0
0.247614 -0.000720071 0.0
0.227196 -0.0005921 0.0
0.239788 -0.000654354 0.0
0.187024 -0.000440874 0.0
0.20959 -0.000537987 0.0
0.210434 -0.000559534 0.0
0 0 0.0
0.0480277 -4.58916e-05 0.0
0.12827 -0.000278006 0.0
0.0907407 -0.000151335 0.0
0.126891 -0.000240398 0.0
0.159424 -0.00035452 0.0
0.0470613 -4.07546e-05 0.0
0.0893917 -0.000133473 0.0
0 0 0.0
0.160715 -0.000405988 0.0
0.188125 -0.000520416 0.0
0.247381 -0.000725625 0.0
0.249998 -0.000773935 0.0
0.240261 -0.000747462 0.0
0.227898 -0.000702132 0.0
0.247636 -0.00080143 0.0
0.239745 -0.000729168 0.0
0.227147 -0.000648068 0.0
0.186929 -0.0004904 0.0
0.209509 -0.00059869 0.0
0.210517 -0.000623394 0.0
0 0 0.0
0.0481113 -5.06579e-05 0.0
0.128385 -0.000303191 0.0
0.0908676 -0.00016701 0.0
0.126774 -0.000266047 0.0
0.159313 -0.000393607 0.0
0 0 0.0
0.0892791 -0.000147635 0.0
0.0469877 -4.47841e-05 0.0
0.188237 -0.000578973 0.0
0.160844 -0.000450075 0.0
0.227957 -0.000765687 0.0
0.247358 -0.000808021 0.0
0.249998 -0.000860704 0.0
0.247654 -0.000870145 0.0
0.240299 -0.000813399 0.0
0.239699 -0.000810308 0.0
0.22708 -0.000720605 0.0
0.186795 -0.000557243 0.0
0.209419 -0.000665143 0.0
0.21061 -0.000691692 0.0
0 0 0.0
0.0482065 -5.58674e-05 0.0
0.0909935 -0.000182036 0.0
0.128533 -0.000334559 0.0
0.126624 -0.000298033 0.0
0.159188 -0.000435651 0.0
0 0 0.0
0.0468995 -4.92573e-05 0.0
0.0891689 -0.000160686 0.0
0.188331 -0.000624602 0.0
0.160987 -0.000498088 0.0
0.228019 -0.000834017 0.0
0.240371 -0.000939978 0.0
0.247333 -0.000897457 0.0
0.249997 -0.000954293 0.0
0.247675 -0.000942533 0.0
0.239646 -0.000898195 0.0
0.227006 -0.000799372 0.0
0.186704 -0.000601504 0.0
0.209318 -0.000736001 0.0
0.210715 -0.000766713 0.0
0 0 0.0
0.0483124 -6.13641e-05 0.0
0.128724 -0.000375569 0.0
0.0911637 -0.000203392 0.0
0.1265 -0.000324001 0.0
0.15905 -0.000481217 0.0
0.0468114 -5.35024e-05 0.0
0 0 0.0
0.0890204 -0.000178344 0.0
0.161145 -0.000550486 0.0
0.188501 -0.000707419 0.0
0.228137 -0.00095629 0.0
0.240432 -0.0010424 0.0
0.247702 -0.00104461 0.0
0.24729 -0.00103837 0.0
0.249996 -0.00105805 0.0
0.239587 -0.000995974 0.0
0.226892 -0.000914503 0.0
0.186539 -0.000680387 0.0
0.209207 -0.000814504 0.0
0.210829 -0.00084805 0.0
0 0 0.0
0.0484278 -6.73033e-05 0.0
0.0913343 -0.000223092 0.0
0.16132 -0.000606124 0.0
0.12888 -0.000407366 0.0
0.12634 -0.000356829 0.0
0.158928 -0.000520512 0.0
0.046709 -5.91082e-05 0.0
0 0 0.0
0.0888844 -0.000194557 0.0
0.210937 -0.000923664 0.0
0.188618 -0.000763906 0.0
0.240484 -0.00112904 0.0
0.228235 -0.00106035 0.0
0.247749 -0.00120643 0.0
0.249995 -0.0011697 0.0
0.247264 -0.00112248 0.0
0.239522 -0.00110046 0.0
0.226814 -0.000992611 0.0
0.186427 -0.000732559 0.0
0.158726 -0.000585477 0.0
0.209083 -0.000898564 0.0
0 0 0.0
0.0915054 -0.000243876 0.0
0.0485637 -7.48058e-05 0.0
0.161475 -0.000657304 0.0
0.129113 -0.000457259 0.0
0.126164 -0.000393261 0.0
0 0 0.0
0.0465966 -6.49974e-05 0.0
0.0887033 -0.000216079 0.0
0.211056 -0.00100414 0.0
0.188828 -0.000866787 0.0
0.24054 -0.00122245 0.0
0.228344 -0.00117316 0.0
0.247775 -0.00130631 0.0
0.249991 -0.00129315 0.0
0.247236 -0.00121503 0.0
0.158577 -0.000630448 0.0
0.208966 -0.000976093 0.0
0.239448 -0.00121365 0.0
0.226728 -0.00107769 0.0
0.186266 -0.000808206 0.0
0 0 0.0
0.0486975 -8.15327e-05 0.0
0.0917099 -0.000267914 0.0
0.161687 -0.000724621 0.0
0.12934 -0.000504441 0.0
0.0885198 -0.000237117 0.0
0.125938 -0.000439247 0.0
0 0 0.0
0.0464672 -7.1956e-05 0.0
0.211208 -0.00110955 0.0
0.18902 -0.000958475 0.0
0.240617 -0.00135084 0.0
0.228464 -0.00129773 0.0
0.247805 -0.00141329 0.0
0.24999 -0.00142958 0.0
0.247176 -0.00139943 0.0
0.158376 -0.000693856 0.0
0.239368 -0.00133998 0.0
0.20884 -0.00105745 0.0
0.226573 -0.00123099 0.0
0.186039 -0.000914989 0.0
0 0 0.0
0.0919612 -0.000297859 0.0
0.0488516 -8.94803e-05 0.0
0.161969 -0.000815136 0.0
0.12959 -0.000556381 0.0
0.0883398 -0.000258755 0.0
0.125721 -0.000484867 0.0
0 0 0.0
0.0463298 -7.94419e-05 0.0
0.189231 -0.00106097 0.0
0.211377 -0.00122731 0.0
0.240703 -0.00149487 0.0
0.247847 -0.00155888 0.0
0.228596 -0.00143477 0.0
0.249986 -0.00157594 0.0
0.247129 -0.00154746 0.0
0.239279 -0.00147551 0.0
0.249555 -0.00169166 0.0
0.158151 -0.000763554 0.0
0.226441 -0.00135755 0.0
0.208625 -0.00119869 0.0
0.185889 -0.000983517 0.0
0 0 0.0
0.0921915 -0.000325306 0.0
0.0490325 -9.93828e-05 0.0
0.162181 -0.000884052 0.0
0.129868 -0.000613965 0.0
0.088121 -0.000285117 0.0
0.125518 -0.000526753 0.0
0 0 0.0
0.0461874 -8.73924e-05 0.0
0.189465 -0.00117385 0.0
0.211564 -0.0013583 0.0
0.240792 -0.00165058 0.0
0.228742 -0.00158937 0.0
0.24791 -0.00180275 0.0
0.249158 -0.00168864 0.0
0.243766 -0.00163656 0.0
0.233385 -0.00153577 0.0
0.249977 -0.00182962 0.0
0.157907 -0.000839984 0.0
0.21802 -0.0013907 0.0
0.203216 -0.00125861 0.0
0.185616 -0.00110663 0.0
0 0 0.0
0.0924679 -0.000358516 0.0
0.0492197 -0.000108623 0.0
0.162469 -0.000978781 0.0
0.130176 -0.000679162 0.0
0.125219 -0.000588805 0.0
0.0878792 -0.000314852 0.0
0 0 0.0
0.0460145 -9.63864e-05 0.0
0.189726 -0.00130109 0.0
0.211771 -0.00150461 0.0
0.247954 -0.0019899 0.0
0.228902 -0.00175982 0.0
0.240897 -0.00182692 0.0
0.247042 -0.00180289 0.0
0.239112 -0.00172277 0.0
0.226194 -0.00159145 0.0
0.249964 -0.0020189 0.0
0.157637 -0.000924922 0.0
0.208298 -0.00141029 0.0
0.18537 -0.00121724 0.0
0 0 0.0
0.0494168 -0.000118831 0.0
0.092775 -0.00039696 0.0
0.130465 -0.000740539 0.0
0.190014 -0.00144198 0.0
0.162791 -0.0010855 0.0
0.12493 -0.00064836 0.0
0.0876128 -0.000347856 0.0
0.0458297 -0.000106717 0.0
0 0 0.0
0.229047 -0.00191681 0.0
0.212 -0.00167079 0.0
0.247994 -0.00215267 0.0
0.241005 -0.0020251 0.0
0.226021 -0.00174879 0.0
0.246973 -0.00198625 0.0
0.238988 -0.0018959 0.0
0.249952 -0.00222775 0.0
0.185104 -0.00133495 0.0
0.157281 -0.00103304 0.0
0.208007 -0.00159251 0.0
0 0 0.0
0.0496454 -0.000132132 0.0
0.0931539 -0.000444931 0.0
0.13084 -0.00082158 0.0
0.19025 -0.00156509 0.0
0.163223 -0.001238 0.0
0.124615 -0.000712087 0.0
0.0872915 -0.000387215 0.0
0.0456278 -0.000117603 0.0
0 0 0.0
0.124268 -0.000782582 0.0
0.229201 -0.00208276 0.0
0.212332 -0.00192167 0.0
0.241172 -0.00234144 0.0
0.248033 -0.00232542 0.0
0.22576 -0.00198248 0.0
0.238854 -0.00208315 0.0
0.246897 -0.00218963 0.0
0.249928 -0.00245854 0.0
0.184812 -0.00146208 0.0
0.156952 -0.00113563 0.0
0.207758 -0.00174918 0.0
0 0 0.0
0.0498991 -0.000146601 0.0
0.0935407 -0.000496595 0.0
0.131259 -0.000917521 0.0
0.190599 -0.00174194 0.0
0.163634 -0.00138461 0.0
0.0454006 -0.000131209 0.0
0.0869644 -0.000427466 0.0
0 0 0.0
0.123951 -0.000842871 0.0
0.229405 -0.00231893 0.0
0.212621 -0.00214317 0.0
0.241303 -0.00259747 0.0
0.248081 -0.00257623 0.0
0.225575 -0.00214085 0.0
0.238703 -0.00228756 0.0
0.249901 -0.00271481 0.0
0.246764 -0.00251832 0.0
0.184571 -0.00156044 0.0
0.156593 -0.00124144 0.0
0.207483 -0.00191227 0.0
0 0 0.0
0.0501801 -0.000163427 0.0
0.0939719 -0.000555738 0.0
0.1318 -0.00104544 0.0
0.191081 -0.00200217 0.0
0.212935 -0.00239739 0.0
0.164087 -0.0015557 0.0
0.0451679 -0.000143655 0.0
0.0866105 -0.000468699 0.0
0 0 0.0
0.123547 -0.000918206 0.0
0.229705 -0.00267666 0.0
0.241411 -0.00283002 0.0
0.248129 -0.00285433 0.0
0.249868 -0.00292722 0.0
0.225379 -0.00230424 0.0
0.238524 -0.00251465 0.0
0.24665 -0.00277146 0.0
0.156201 -0.00135279 0.0
0.184228 -0.00170149 0.0
0.207177 -0.00208642 0.0
0 0 0.0
0.0505184 -0.000185551 0.0
0.0944629 -0.000630103 0.0
0.132338 -0.00118375 0.0
0.191408 -0.00218818 0.0
0.213277 -0.00268131 0.0
0.164595 -0.0017543 0.0
0.0448983 -0.00015702 0.0
0.0862241 -0.000511402 0.0
0 0 0.0
0.155865 -0.00143675 0.0
0.0858084 -0.000551998 0.0
0.123041 -0.00100458 0.0
0.22995 -0.00300296 0.0
0.24152 -0.00307318 0.0
0.248188 -0.00331343 0.0
0.249834 -0.00315004 0.0
0.246551 -0.00298677 0.0
0.225113 -0.00251572 0.0
0.238242 -0.00286076 0.0
0.183749 -0.00188297 0.0
0.206892 -0.00224753 0.0
0.230167 -0.00328704 0.0
0 0 0.0
0.0508826 -0.000211103 0.0
0.132945 -0.00134878 0.0
0.0950187 -0.000720438 0.0
0.213655 -0.00301772 0.0
0.192 -0.00254067 0.0
0.165162 -0.00198736 0.0
0.0445925 -0.000170466 0.0
0 0 0.0
0.18343 -0.00199953 0.0
0.155409 -0.00154957 0.0
0.12256 -0.00108171 0.0
0.0442706 -0.000186399 0.0
0.0853577 -0.000594245 0.0
0.241666 -0.0034243 0.0
0.248211 -0.00359426 0.0
0.249764 -0.00347912 0.0
0.249701 -0.00375307 0.0
0.246431 -0.0032137 0.0
0.224806 -0.00274593 0.0
0.237991 -0.00313363 0.0
0.206577 -0.002404 0.0
0.230382 -0.00360631 0.0
0.0512816 -0.000241846 0.0
0 0 0.0
0.133521 -0.00151039 0.0
0.0956503 -0.000826137 0.0
0.21406 -0.00339936 0.0
0.192397 -0.00279138 0.0
0.165797 -0.00226366 0.0
0 0 0.0
0.182975 -0.00214717 0.0
0.154811 -0.00167784 0.0
0.122128 -0.00113595 0.0
0.043949 -0.000198579 0.0
0.0848798 -0.000632996 0.0
0.241861 -0.0039935 0.0
0.24823 -0.00389068 0.0
0.249616 -0.00404048 0.0
0.246168 -0.00367595 0.0
0.224466 -0.00298475 0.0
0.237714 -0.00342479 0.0
0.20604 -0.00266393 0.0
0.230672 -0.00405103 0.0
0 0 0.0
0.0517598 -0.000281706 0.0
0.134281 -0.00173744 0.0
0.0963062 -0.000943343 0.0
0.166503 -0.00258348 0.0
0.2145 -0.00384322 0.0
0.19312 -0.00326657 0.0
0 0 0.0
0 0 0.0
0.182465 -0.00229998 0.0
0.154263 -0.00178442 0.0
0.121586 -0.00120166 0.0
0.0843762 -0.000668093 0.0
0.0435898 -0.000209615 0.0
0.241997 -0.00446067 0.0
0.248228 -0.0043238 0.0
0.237453 -0.00367401 0.0
0.249481 -0.00446031 0.0
0.245929 -0.00404205 0.0
0.224073 -0.00324249 0.0
0.205562 -0.00286788 0.0
0.242095 -0.00488296 0.0
0.230955 -0.00455614 0.0
0.0523116 -0.000326421 0.0
0.0971304 -0.00109069 0.0
0.135147 -0.00201096 0.0
0.167132 -0.00288949 0.0
0.214973 -0.00434701 0.0
0.193594 -0.0036147 0.0
0 0 0.0
0 0 0.0
0.153795 -0.00185522 0.0
0.18176 -0.00247973 0.0
0.0839023 -0.000691959 0.0
0.120921 -0.00126578 0.0
0.0432082 -0.000221487 0.0
0.248193 -0.00502029 0.0
0.249293 -0.00492963 0.0
0.205032 -0.0030757 0.0
0.237158 -0.00393079 0.0
0.245718 -0.00434842 0.0
0.223456 -0.00360467 0.0
0.242189 -0.00532593 0.0
0.23137 -0.00534687 0.0
0.215472 -0.00493013 0.0
0.0529983 -0.0003846 0.0
0.0980866 -0.00127758 0.0
0.136291 -0.00238545 0.0
0.168 -0.00331606 0.0
0.194461 -0.00426926 0.0
0 0 0.0
0 0 0.0
0.153035 -0.00195818 0.0
0.181121 -0.00262774 0.0
0.0833072 -0.00071676 0.0
0.12031 -0.00131197 0.0
0.0427999 -0.000229966 0.0
0.24547 -0.00467463 0.0
0.249059 -0.0054343 0.0
0.248106 -0.00558974 0.0
0.204433 -0.00328714 0.0
0.236739 -0.00428108 0.0
0.222916 -0.00390171 0.0
0.180421 -0.00276806 0.0
0.242301 -0.00622562 0.0
0 0 0.0
0.231649 -0.00604242 0.0
0.195227 -0.00489578 0.0
0.215993 -0.00558893 0.0
0.053736 -0.00045292 0.0
0.137268 -0.0027243 0.0
0.099324 -0.00153248 0.0
0.169168 -0.00395184 0.0
0 0 0.0
0 0 0.0
0 0 0.0
0 0 0.0
0 0 0.0
0.0424192 -0.000234601 0.0
0.119669 -0.00135142 0.0
0.152343 -0.00203904 0.0
0.0827972 -0.000735037 0.0
0.245089 -0.00511416 0.0
0.248754 -0.00599559 0.0
0.247987 -0.00621636 0.0
0.222411 -0.00413748 0.0
0.203753 -0.00350224 0.0
0.236019 -0.00480597 0.0
0.203113 -0.00368516 0.0
0.179841 -0.00286616 0.0
0.242326 -0.00697627 0.0
0.231932 -0.00680517 0.0
0 0 0.0
9.39501e-05 -4.03342e-05 0.0
0 0 0.0
-0.00030016 0.00157329 0.0
0.216546 -0.00635366 0.0
0.195852 -0.00542093 0.0
0.0546901 -0.000545893 0.0
0.138554 -0.00317924 0.0
0.100643 -0.00181367 0.0
0.170283 -0.00458327 0.0
0 0 0.0
0 0 0.0
0 0 0.0
-0.000216322 0.000791467 0.0
-5.15875e-06 -0.000139768 0.0
6.85867e-05 -8.65937e-05 0.0
0 0 0.0
0.0420034 -0.00024074 0.0
0.119104 -0.00137551 0.0
0.1516 -0.00210986 0.0
0.0821695 -0.000751537 0.0
0.244637 -0.00560252 0.0
0.248371 -0.0066084 0.0
0.2478 -0.00690386 0.0
0.221845 -0.00439304 0.0
0.235531 -0.00514185 0.0
0.202402 -0.00386533 0.0
0.178793 -0.00302771 0.0
0.242316 -0.00779998 0.0
0.235173 -0.00766668 0.0
0.225216 -0.0073542 0.0
0 0 0.0
0.000157253 -1.25076e-05 0.0
0 0 0.0
0 0 0.0
-0.00108147 0.00370267 0.0
-0.00100667 0.00233544 0.0
0.212414 -0.006899 0.0
0.196726 -0.00622132 0.0
0.102027 -0.00211986 0.0
0.0557253 -0.000659753 0.0
0.140019 -0.00373064 0.0
0.171505 -0.00531991 0.0
0 0 0.0
-0.00031923 0.000310718 0.0
-0.000655827 0.00111761 0.0
-0.000161592 6.70976e-05 0.0
-8.69806e-05 0.000117052 0.0
0 0 0.0
0.0415823 -0.000245632 0.0
0.118417 -0.0014 0.0
0.150811 -0.00216692 0.0
0.0815826 -0.000762948 0.0
0.24409 -0.0061258 0.0
0.247902 -0.00727316 0.0
0.247536 -0.0076604 0.0
0.220779 -0.00483339 0.0
0.234977 -0.00547995 0.0
0.201468 -0.00409231 0.0
0.149968 -0.00223395 0.0
0.177853 -0.00316348 0.0
0.242257 -0.00851546 0.0
0.232335 -0.00830087 0.0
0.217503 -0.00791931 0.0
0 0 0.0
1.59906e-06 8.81426e-05 0.0
0 0 0.0
0 0 0.0
0 0 0.0
0 0 0.0
-0.00178371 0.0025049 0.0
-0.00031571 0.00327571 0.0
-0.00112903 0.00490777 0.0
-0.00259927 0.00649104 0.0
-0.00213823 0.00432208 0.0
0 0 0.0
-8.23803e-05 0.0052229 0.0
0.19789 -0.00741994 0.0
0.172575 -0.0060243 0.0
0 0 0.0
0.0570988 -0.000821418 0.0
0.103806 -0.00254727 0.0
0.14196 -0.00455014 0.0
0 0 0.0
0 0 0.0
-0.00101675 0.00112532 0.0
-0.000715022 0.00061589 0.0
-0.000614712 0.000448508 0.0