# vtk DataFile Version 3.0
Mesh NS-CD Problem
ASCII
DATASET UNSTRUCTURED_GRID
POINTS 10839 float
-2 0.3 0.0
-2 0.4 0.0
-2 0.35 0.0
-2 0.45 0.0
-2 0.5 0.0
-2 0.55 0.0
-2 0 0.0
-2 0.05 0.0
-2 0.85 0.0
-2 0.9 0.0
-2 0.1 0.0
-2 0.15 0.0
-2 0.25 0.0
-2 0.2 0.0
-1.96653 0.266667 0.0
-1.96524 0.415385 0.0
-1.96485 0.315 0.0
-1.96348 0.363636 0.0
-1.96414 0.464286 0.0
-2 0.6 0.0
-1.96538 0.584615 0.0
-1.96538 0.538462 0.0
-1.94979 0 0.0
-1.96653 0.0666666 0.0
-1.93306 0.0333333 0.0
-2 0.8 0.0
-2 0.75 0.0
-2 0.7 0.0
-2 0.65 0.0
-1.96249 0.7375 0.0
-1.96666 0.833333 0.0
-2 1 0.0
-2 0.95 0.0
-1.96249 0.8875 0.0
-1.96666 0.933333 0.0
-1.96234 0.1125 0.0
-1.96653 0.166667 0.0
-1.93724 0.225 0.0
-1.92971 0.28 0.0
-1.93048 0.380769 0.0
-1.93048 0.423077 0.0
-1.89958 0.3375 0.0
-1.9292 0.484203 0.0
-1.92117 0.530907 0.0
-1.96363 0.636364 0.0
-1.93076 0.576923 0.0
-1.89958 0 0.0
-1.88703 0.0375 0.0
-1.90963 0.08 0.0
-1.86611 0.0666666 0.0
-1.93749 0.775 0.0
-1.93635 0.672727 0.0
-1.92999 0.72 0.0
-1.93332 0.866667 0.0
-1.92856 0.821429 0.0
-1.94999 1 0.0
-1.92499 0.9625 0.0
-1.92499 0.925 0.0
-1.89998 0.9 0.0
-1.89958 0.125 0.0
-1.92827 0.178571 0.0
-1.89958 0.233333 0.0
-1.89045 0.290909 0.0
-1.86096 0.311538 0.0
-1.89241 0.392857 0.0
-1.89334 0.448489 0.0
-1.85655 0.357143 0.0
-1.89614 0.653846 0.0
-1.89427 0.504121 0.0
-1.8952 0.559753 0.0
-1.89614 0.615385 0.0
-1.84937 0 0.0
-1.83264 0.0333333 0.0
-1.85655 0.107143 0.0
-1.81172 0.075 0.0
-1.89998 0.766667 0.0
-1.89089 0.709091 0.0
-1.87498 0.85 0.0
-1.85998 0.79 0.0
-1.88748 0.8125 0.0
-1.89998 1 0.0
-1.88748 0.9625 0.0
-1.86664 0.933333 0.0
-1.85712 0.892857 0.0
-1.87448 0.15 0.0
-1.86611 0.194444 0.0
-1.83264 0.133333 0.0
-1.83264 0.2625 0.0
-1.82068 0.321429 0.0
-1.85664 0.404762 0.0
-1.85674 0.452381 0.0
-1.85683 0.5 0.0
-1.81184 0.375 0.0
-1.85712 0.642857 0.0
-1.85693 0.547619 0.0
-1.85702 0.595238 0.0
-1.79917 0 0.0
-1.78482 0.0357143 0.0
-1.79917 0.116667 0.0
-1.76569 0.0666666 0.0
-1.85452 0.745455 0.0
-1.82689 0.692308 0.0
-1.81815 0.781818 0.0
-1.82497 0.825 0.0
-1.84997 1 0.0
-1.8333 0.958333 0.0
-1.81247 0.8875 0.0
-1.81247 0.925 0.0
-1.81742 0.218182 0.0
-1.82427 0.175 0.0
-1.77634 0.145455 0.0
-1.79144 0.242308 0.0
-1.78482 0.285714 0.0
-1.77469 0.332653 0.0
-1.81215 0.529762 0.0
-1.81194 0.422619 0.0
-1.81203 0.470238 0.0
-1.76714 0.392857 0.0
-1.81234 0.625 0.0
-1.79732 0.571429 0.0
-1.74896 0 0.0
-1.73222 0.0333333 0.0
-1.75398 0.105 0.0
-1.71883 0.07 0.0
-1.79227 0.730769 0.0
-1.78007 0.679121 0.0
-1.75765 0.769231 0.0
-1.78178 0.818182 0.0
-1.78996 0.86 0.0
-1.79996 1 0.0
-1.78568 0.964286 0.0
-1.76663 0.922222 0.0
-1.76569 0.1875 0.0
-1.73222 0.15 0.0
-1.74896 0.25 0.0
-1.73714 0.304762 0.0
-1.76743 0.537202 0.0
-1.72869 0.343878 0.0
-1.76732 0.485119 0.0
-1.76723 0.440476 0.0
-1.72243 0.410714 0.0
-1.76757 0.607143 0.0
-1.69875 0 0.0
-1.68369 0.035 0.0
-1.69875 0.1125 0.0
-1.66528 0.075 0.0
-1.74341 0.708974 0.0
-1.73324 0.665934 0.0
-1.70441 0.74478 0.0
-1.71423 0.785714 0.0
-1.72303 0.826923 0.0
-1.74541 0.854545 0.0
-1.74541 0.890909 0.0
-1.74996 1 0.0
-1.73745 0.9625 0.0
-1.71359 0.927273 0.0
-1.68716 0.153846 0.0
-1.7131 0.214286 0.0
-1.70725 0.275 0.0
-1.69712 0.321939 0.0
-1.72279 0.589286 0.0
-1.72261 0.5 0.0
-1.7227 0.544643 0.0
-1.6827 0.355102 0.0
-1.67773 0.428571 0.0
-1.70763 0.464286 0.0
-1.70369 0.62449 0.0
-1.64854 0 0.0
-1.63181 0.0375 0.0
-1.64137 0.142857 0.0
-1.61764 0.0769231 0.0
-1.69458 0.703846 0.0
-1.67471 0.657437 0.0
-1.66143 0.727637 0.0
-1.67125 0.768571 0.0
-1.67851 0.821429 0.0
-1.68841 0.861538 0.0
-1.70904 0.890909 0.0
-1.69995 1 0.0
-1.68176 0.963636 0.0
-1.67267 0.927273 0.0
-1.65427 0.187143 0.0
-1.66718 0.231429 0.0
-1.66554 0.3 0.0
-1.67802 0.571429 0.0
-1.67792 0.523809 0.0
-1.6367 0.366327 0.0
-1.63682 0.423469 0.0
-1.62568 0.502976 0.0
-1.6629 0.470238 0.0
-1.65254 0.618367 0.0
-1.6059 0.307143 0.0
-1.59833 0 0.0
-1.58288 0.0384615 0.0
-1.60563 0.169643 0.0
-1.58179 0.112271 0.0
-1.56964 0.0714286 0.0
-1.64574 0.690385 0.0
-1.62827 0.751429 0.0
-1.63371 0.791071 0.0
-1.64279 0.857143 0.0
-1.65378 0.896154 0.0
-1.64994 1 0.0
-1.6363 0.963636 0.0
-1.61916 0.930769 0.0
-1.61345 0.209107 0.0
-1.62126 0.248571 0.0
-1.56989 0.196429 0.0
-1.63324 0.553571 0.0
-1.58846 0.535714 0.0
-1.59408 0.361905 0.0
-1.59161 0.402211 0.0
-1.58832 0.464286 0.0
-1.61504 0.598581 0.0
-1.59683 0.64359 0.0
-1.57899 0.274107 0.0
-1.56176 0.322381 0.0
-1.54812 0 0.0
-1.53378 0.0357143 0.0
-1.54593 0.147619 0.0
-1.53385 0.0732143 0.0
-1.53393 0.110714 0.0
-1.58522 0.704286 0.0
-1.58709 0.745 0.0
-1.58896 0.785714 0.0
-1.60695 0.830357 0.0
-1.60707 0.892857 0.0
-1.59993 1 0.0
-1.58454 0.965385 0.0
-1.57135 0.928571 0.0
-1.55209 0.241071 0.0
-1.5291 0.198214 0.0
-1.56936 0.570918 0.0
-1.54369 0.517857 0.0
-1.5464 0.380952 0.0
-1.54564 0.427721 0.0
-1.54488 0.47449 0.0
-1.55026 0.606122 0.0
-1.54222 0.677143 0.0
-1.52943 0.282857 0.0
-1.52143 0.33619 0.0
-1.49792 0 0.0
-1.49802 0.05 0.0
-1.49822 0.15 0.0
-1.49312 0.1 0.0
-1.5423 0.717143 0.0
-1.54419 0.767857 0.0
-1.54727 0.819048 0.0
-1.57122 0.861905 0.0
-1.53553 0.914286 0.0
-1.54992 1 0.0
-1.53563 0.964286 0.0
-1.49842 0.25 0.0
-1.48831 0.2 0.0
-1.5214 0.558929 0.0
-1.49891 0.5 0.0
-1.49871 0.4 0.0
-1.47631 0.45 0.0
-1.49911 0.6 0.0
-1.49921 0.65 0.0
-1.49931 0.7 0.0
-1.48111 0.35 0.0
-1.48351 0.3 0.0
-1.44771 0 0.0
-1.44782 0.05 0.0
-1.44804 0.15 0.0
-1.44793 0.1 0.0
-1.49941 0.75 0.0
-1.49951 0.8 0.0
-1.49981 0.95 0.0
-1.49961 0.85 0.0
-1.49971 0.9 0.0
-1.49991 1 0.0
-1.44826 0.25 0.0
-1.43815 0.2 0.0
-1.47151 0.55 0.0
-1.44881 0.5 0.0
-1.44859 0.4 0.0
-1.42619 0.45 0.0
-1.44913 0.65 0.0
-1.44902 0.6 0.0
-1.44935 0.75 0.0
-1.44924 0.7 0.0
-1.43972 0.35 0.0
-1.43336 0.3 0.0
-1.3975 0 0.0
-1.39762 0.05 0.0
-1.39786 0.15 0.0
-1.39274 0.1 0.0
-1.44957 0.85 0.0
-1.44946 0.8 0.0
-1.4523 0.95 0.0
-1.44968 0.9 0.0
-1.4499 1 0.0
-1.3981 0.25 0.0
-1.38798 0.2 0.0
-1.42141 0.55 0.0
-1.3987 0.5 0.0
-1.39834 0.35 0.0
-1.37845 0.4 0.0
-1.37607 0.45 0.0
-1.40784 0.65 0.0
-1.39894 0.6 0.0
-1.41185 0.75 0.0
-1.39918 0.7 0.0
-1.38322 0.3 0.0
-1.34729 0 0.0
-1.34492 0.05 0.0
-1.34018 0.15 0.0
-1.34255 0.1 0.0
-1.40707 0.85 0.0
-1.39941 0.8 0.0
-1.39977 0.95 0.0
-1.39965 0.9 0.0
-1.39989 1 0.0
-1.33781 0.2 0.0
-1.33544 0.25 0.0
-1.37131 0.55 0.0
-1.34859 0.5 0.0
-1.33833 0.4 0.0
-1.3307 0.35 0.0
-1.32595 0.45 0.0
-1.34885 0.6 0.0
-1.36655 0.65 0.0
-1.36179 0.75 0.0
-1.34911 0.7 0.0
-1.33307 0.3 0.0
-1.29708 0 0.0
-1.29722 0.05 0.0
-1.2975 0.15 0.0
-1.29236 0.1 0.0
-1.35703 0.85 0.0
-1.34937 0.8 0.0
-1.34988 1 0.0
-1.34962 0.9 0.0
-1.35226 0.95 0.0
-1.28528 0.25 0.0
-1.28764 0.2 0.0
-1.28931 0.35 0.0
-1.32121 0.55 0.0
-1.29848 0.5 0.0
-1.28709 0.45 0.0
-1.2982 0.4 0.0
-1.29876 0.6 0.0
-1.31647 0.65 0.0
-1.29918 0.75 0.0
-1.29904 0.7 0.0
-1.28292 0.3 0.0
-1.24687 0 0.0
-1.24702 0.05 0.0
-1.24717 0.1 0.0
-1.24732 0.15 0.0
-1.29946 0.85 0.0
-1.29932 0.8 0.0
-1.29987 1 0.0
-1.29974 0.95 0.0
-1.30462 0.9 0.0
-1.24762 0.25 0.0
-1.23747 0.2 0.0
-1.24792 0.35 0.0
-1.22807 0.4 0.0
-1.27111 0.55 0.0
-1.24837 0.5 0.0
-1.24822 0.45 0.0
-1.24867 0.6 0.0
-1.26639 0.65 0.0
-1.26167 0.75 0.0
-1.24897 0.7 0.0
-1.23277 0.3 0.0
-1.19667 0 0.0
-1.19683 0.05 0.0
-1.18964 0.15 0.0
-1.19198 0.1 0.0
-1.25695 0.85 0.0
-1.24927 0.8 0.0
-1.25223 0.95 0.0
-1.24987 1 0.0
-1.24957 0.9 0.0
-1.1873 0.2 0.0
-1.18496 0.25 0.0
-1.18028 0.35 0.0
-1.17794 0.4 0.0
-1.1981 0.45 0.0
-1.19842 0.55 0.0
-1.19826 0.5 0.0
-1.19858 0.6 0.0
-1.19874 0.65 0.0
-1.19906 0.75 0.0
-1.1989 0.7 0.0
-1.18262 0.3 0.0
-1.14646 0 0.0
-1.14663 0.05 0.0
-1.1418 0.1 0.0
-1.13713 0.2 0.0
-1.14697 0.15 0.0
-1.20691 0.85 0.0
-1.20926 0.8 0.0
-1.20221 0.95 0.0
-1.19986 1 0.0
-1.20456 0.9 0.0
-1.13997 0.3 0.0
-1.14731 0.25 0.0
-1.13781 0.4 0.0
-1.13014 0.35 0.0
-1.12548 0.45 0.0
-1.14815 0.5 0.0
-1.15962 0.55 0.0
-1.14849 0.6 0.0
-1.15745 0.65 0.0
-1.16155 0.75 0.0
-1.14917 0.8 0.0
-1.14883 0.7 0.0
-1.09625 0 0.0
-1.09661 0.1 0.0
-1.09393 0.05 0.0
-1.09697 0.2 0.0
-1.08929 0.15 0.0
-1.15687 0.85 0.0
-1.14985 1 0.0
-1.15219 0.95 0.0
-1.14951 0.9 0.0
-1.09733 0.3 0.0
-1.08465 0.25 0.0
-1.09769 0.4 0.0
-1.08 0.35 0.0
-1.08661 0.45 0.0
-1.09804 0.5 0.0
-1.12082 0.55 0.0
-1.10916 0.8 0.0
-1.10629 0.7 0.0
-1.0984 0.6 0.0
-1.11616 0.65 0.0
-1.11149 0.75 0.0
-1.04604 0 0.0
-1.04623 0.05 0.0
-1.04642 0.1 0.0
-1.0468 0.2 0.0
-1.03911 0.15 0.0
-1.09948 0.9 0.0
-1.0993 0.85 0.0
-1.09984 1 0.0
-1.09966 0.95 0.0
-1.04718 0.3 0.0
-1.03449 0.25 0.0
-1.04756 0.4 0.0
-1.02986 0.35 0.0
-1.04775 0.45 0.0
-1.04794 0.5 0.0
-1.04813 0.55 0.0
-1.05911 0.8 0.0
-1.04831 0.6 0.0
-1.06376 0.7 0.0
-1.0485 0.65 0.0
-1.04888 0.75 0.0
-0.995833 0 0.0
-0.991231 0.1 0.0
-0.996033 0.05 0.0
-0.986629 0.2 0.0
-0.98893 0.15 0.0
-1.05447 0.9 0.0
-1.04926 0.85 0.0
-1.04983 1 0.0
-1.04964 0.95 0.0
-0.984328 0.25 0.0
-0.99703 0.3 0.0
-0.997429 0.4 0.0
-0.997628 0.45 0.0
-0.979726 0.35 0.0
-0.997827 0.5 0.0
-0.998027 0.55 0.0
-0.998226 0.6 0.0
-0.961416 0.475 0.0
-1.00907 0.8 0.0
-0.998426 0.65 0.0
-0.998625 0.7 0.0
-1.01138 0.75 0.0
-0.945625 0 0.0
-0.946044 0.1 0.0
-0.943334 0.05 0.0
-0.946463 0.2 0.0
-0.938752 0.15 0.0
-1.00444 0.9 0.0
-1.00675 0.85 0.0
-0.999821 1 0.0
-1.00213 0.95 0.0
-0.93417 0.25 0.0
-0.946881 0.3 0.0
-0.9473 0.4 0.0
-0.929588 0.35 0.0
-0.925005 0.45 0.0
-0.960371 0.525 0.0
-0.959325 0.575 0.0
-0.958279 0.625 0.0
-0.922714 0.5 0.0
-0.959017 0.8 0.0
-0.957233 0.675 0.0
-0.952999 0.7125 0.0
-0.948766 0.75 0.0
-0.895417 0 0.0
-0.895855 0.1 0.0
-0.893136 0.05 0.0
-0.896294 0.2 0.0
-0.888573 0.15 0.0
-0.949184 0.85 0.0
-0.954415 0.9 0.0
-0.949812 1 0.0
-0.949603 0.95 0.0
-0.884011 0.25 0.0
-0.896733 0.3 0.0
-0.874887 0.45 0.0
-0.879449 0.35 0.0
-0.897171 0.4 0.0
-0.920423 0.55 0.0
-0.918132 0.6 0.0
-0.915841 0.65 0.0
-0.872606 0.5 0.0
-0.908968 0.8 0.0
-0.91355 0.7 0.0
-0.898707 0.75 0.0
-0.845208 0 0.0
-0.845438 0.05 0.0
-0.845667 0.1 0.0
-0.845896 0.15 0.0
-0.833853 0.25 0.0
-0.846126 0.2 0.0
-0.899146 0.85 0.0
-0.904386 0.9 0.0
-0.899584 0.95 0.0
-0.899804 1 0.0
-0.838062 0.35 0.0
[...]
POINT_DATA 10839
VECTORS Velocity float
0.21 0 0.0
0.24 0 0.0
0.2275 0 0.0
0.2475 0 0.0
0.25 0 0.0
0.2475 0 0.0
0 0 0.0
0.0475 0 0.0
0.1275 0 0.0
0.09 0 0.0
0.09 0 0.0
0.1275 0 0.0
0.1875 0 0.0
0.16 0 0.0
0.19556 -5.12889e-05 0.0
0.242836 -4.92938e-05 0.0
0.215776 -6.20789e-05 0.0
0.231403 -6.30942e-05 0.0
0.248717 -3.17819e-05 0.0
0.24 0 0.0
0.242835 1.25034e-05 0.0
0.248513 -7.28196e-06 0.0
0 0 0.0
0.0622229 -7.30218e-06 0.0
0.0322303 -2.01767e-06 0.0
0.16 0 0.0
0.1875 0 0.0
0.21 0 0.0
0.2275 0 0.0
0.193597 2.68675e-05 0.0
0.138892 2.1364e-06 0.0
0 0 0.0
0.0475 0 0.0
0.0998429 -3.73537e-06 0.0
0.0622206 2.32161e-06 0.0
0.0998481 -9.40337e-06 0.0
0.138894 -1.99197e-05 0.0
0.174393 -7.60637e-05 0.0
0.201615 -0.00012359 0.0
0.235771 -0.000123765 0.0
0.244062 -0.000100672 0.0
0.223592 -0.000209766 0.0
0.249718 -5.07968e-05 0.0
0.249009 -1.1467e-05 0.0
0.231401 2.5844e-05 0.0
0.24406 2.90781e-05 0.0
0 0 0.0
0.0360702 3.23097e-05 0.0
0.0735995 3.13433e-05 0.0
0.062178 0.000119547 0.0
0.174388 3.20292e-05 0.0
0.220163 6.02065e-05 0.0
0.201611 6.62062e-05 0.0
0.115563 -1.47226e-05 0.0
0.146704 8.88022e-06 0.0
0 0 0.0
0.0360909 -7.01378e-06 0.0
0.069364 -2.26497e-05 0.0
0.0899988 -7.04712e-05 0.0
0.109412 2.07333e-05 0.0
0.146712 -4.9769e-05 0.0
0.178947 -0.000150661 0.0
0.206312 -0.000229915 0.0
0.214507 -0.000341714 0.0
0.238479 -0.000204348 0.0
0.247279 -0.000136616 0.0
0.22955 -0.000347735 0.0
0.226314 0.000125077 0.0
0.249907 -4.67194e-05 0.0
0.246365 3.44121e-05 0.0
0.236648 9.34634e-05 0.0
0 0 0.0
0.0320514 8.70454e-05 0.0
0.095737 0.000138903 0.0
0.0692713 0.000273052 0.0
0.178931 7.6319e-05 0.0
0.206295 0.000137709 0.0
0.127577 -5.56303e-05 0.0
0.166021 9.39321e-05 0.0
0.152413 2.563e-05 0.0
0 0 0.0
0.0360525 -3.83399e-05 0.0
0.062147 -0.00013822 0.0
0.0957001 -0.000178398 0.0
0.127608 3.3277e-06 0.0
0.156772 -0.000131373 0.0
0.115787 0.000116317 0.0
0.193737 -0.000397584 0.0
0.218124 -0.000528585 0.0
0.240831 -0.000287161 0.0
0.247597 -0.000193166 0.0
0.249849 -7.68868e-05 0.0
0.234244 -0.000516723 0.0
0.229538 0.000205341 0.0
0.247592 3.98878e-05 0.0
0.24082 0.000142595 0.0
0 0 0.0
0.0340149 0.00013555 0.0
0.103349 0.000233142 0.0
0.0619241 0.000253809 0.0
0.189836 0.000199187 0.0
0.213034 0.000340722 0.0
0.170815 0.000218879 0.0
0.144635 3.76633e-06 0.0
0 0 0.0
0.0397127 -0.000130455 0.0
0.099997 -0.000289084 0.0
0.0692106 -0.000304417 0.0
0.170877 -0.000335742 0.0
0.144688 -9.94921e-05 0.0
0.124907 1.17043e-05 0.0
0.183924 -0.000568882 0.0
0.204238 -0.000734193 0.0
0.221938 -0.000816457 0.0
0.248827 1.4831e-05 0.0
0.243785 -0.000389552 0.0
0.248833 -0.000216062 0.0
0.238201 -0.000708763 0.0
0.234218 0.000333395 0.0
0.2446 0.000210533 0.0
0 0 0.0
0.031564 8.49488e-05 0.0
0.0943238 0.000161348 0.0
0.0648779 7.04681e-07 0.0
0.19691 0.0004862 0.0
0.217864 0.000594251 0.0
0.177981 0.000605702 0.0
0.149272 0.000146536 0.0
0.120814 -0.000170709 0.0
0 0 0.0
0.0339664 -0.000145477 0.0
0.0715068 -0.00030492 0.0
0.15304 -0.000394208 0.0
0.128497 -0.000361123 0.0
0.187968 -0.000940318 0.0
0.211967 -0.00118352 0.0
0.248111 0.000114793 0.0
0.225406 -0.00119783 0.0
0.249265 -0.000212069 0.0
0.246002 -0.000474095 0.0
0.241387 -0.00090144 0.0
0.238169 0.000469171 0.0
0 0 0.0
0.0331617 -6.19666e-05 0.0
0.100671 -0.00057669 0.0
0.0698457 -0.000781292 0.0
0.206438 0.000907381 0.0
0.222261 0.000945685 0.0
0.190574 0.00132197 0.0
0.169214 0.000992475 0.0
0.144121 0.000556269 0.0
0.125044 7.68027e-05 0.0
0.0975401 -0.000145859 0.0
0 0 0.0
0.0353509 -0.000118067 0.0
0.0671789 2.59822e-05 0.0
0.13159 -0.00120117 0.0
0.169339 -0.00116068 0.0
0.199742 -0.00154405 0.0
0.21816 -0.00165604 0.0
0.241347 0.000602145 0.0
0.249151 -0.000139042 0.0
0.247191 0.000258567 0.0
0.228462 -0.00167231 0.0
0.243752 -0.00105792 0.0
0.247781 -0.000510718 0.0
0.233877 0.00102296 0.0
0 0 0.0
0.0362165 -0.00037292 0.0
0.12415 -0.00242971 0.0
0.0728194 -0.0018349 0.0
0.20848 0.00149751 0.0
0.224663 0.00157663 0.0
0.198486 0.00210648 0.0
0.17875 0.00184614 0.0
0.147993 0.00143872 0.0
0.120414 0.000926243 0.0
0.0977287 0.000291106 0.0
0 0 0.0
0.0343513 6.74075e-05 0.0
0.0675497 0.000559128 0.0
0.153705 -0.00230188 0.0
0.1789 -0.00215687 0.0
0.210025 -0.0022195 0.0
0.243719 0.000720892 0.0
0.248098 0.000124533 0.0
0.231047 -0.00222624 0.0
0.242482 -0.0014656 0.0
0.247829 -0.000143058 0.0
0.247609 -0.000591474 0.0
0.234827 0.00151056 0.0
0.212374 -0.00351065 0.0
0 0 0.0
0.0386024 -0.00075428 0.0
0.142687 -0.00406538 0.0
0.102873 -0.00430275 0.0
0.0702712 -0.00259411 0.0
0.213418 0.00227059 0.0
0.187414 0.00296358 0.0
0.166516 0.00280842 0.0
0.123951 0.00233451 0.0
0.0941208 0.00148469 0.0
0 0 0.0
0.0348741 0.000310357 0.0
0.0657969 0.00143889 0.0
0.166813 -0.00378067 0.0
0.187594 -0.00342081 0.0
0.159268 -0.00580364 0.0
0.245232 0.000753449 0.0
0.24584 0.000601083 0.0
0.229317 -0.00308561 0.0
0.238193 -0.00237762 0.0
0.245902 -0.00104834 0.0
0.238385 0.0016733 0.0
0.227768 0.00273399 0.0
0.198964 -0.00468322 0.0
0.217067 -0.00456553 0.0
0 0 0.0
0.0380409 -0.000972674 0.0
0.128785 -0.00694442 0.0
0.0742372 -0.00349004 0.0
0.103827 -0.00603094 0.0
0.207672 0.00389653 0.0
0.19024 0.00429361 0.0
0.16937 0.00455813 0.0
0.142448 0.00386767 0.0
0.0977846 0.00307523 0.0
0 0 0.0
0.034542 0.000586621 0.0
0.0699506 0.00253631 0.0
0.183393 -0.00623991 0.0
0.160029 -0.00802456 0.0
0.241854 0.00163719 0.0
0.245506 0.00029237 0.0
0.232893 -0.00370059 0.0
0.241098 -0.00241491 0.0
0.245258 -0.00103965 0.0
0.235549 0.00284135 0.0
0.216615 0.00479539 0.0
0.20184 -0.00656808 0.0
0.220541 -0.00555769 0.0
0 0 0.0
0.0551598 -0.00217873 0.0
0.131465 -0.00943658 0.0
0.098953 -0.00666276 0.0
0.201818 0.00563521 0.0
0.178432 0.00648399 0.0
0.149572 0.00692392 0.0
0.121403 0.00531016 0.0
0.0843578 0.00432854 0.0
0 0 0.0
0.0377265 0.000933783 0.0
0.186617 -0.00892159 0.0
0.160687 -0.0104562 0.0
0.241856 0.00182572 0.0
0.244235 -0.000264408 0.0
0.235218 -0.00419519 0.0
0.241087 -0.00254217 0.0
0.235061 0.00365718 0.0
0.22362 0.00543569 0.0
0.207436 0.00707224 0.0
0.223207 -0.00654786 0.0
0.207243 -0.00823877 0.0
0 0 0.0
0.0595273 -0.00245594 0.0
0.133598 -0.011766 0.0
0.103179 -0.00769991 0.0
0.186314 0.00851927 0.0
0.160399 0.00953437 0.0
0.0547178 0.00212582 0.0
0.13101 0.00918517 0.0
0.0979415 0.00637497 0.0
0 0 0.0
0.185209 -0.0119618 0.0
0.160465 -0.01344 0.0
0.240747 0.00201543 0.0
0.241903 -0.000319899 0.0
0.23307 -0.00541796 0.0
0.238482 -0.00324199 0.0
0.221594 0.00728072 0.0
0.232895 0.004834 0.0
0.184783 0.011542 0.0
0.20558 0.00953982 0.0
0.221431 -0.00819967 0.0
0.205262 -0.0108455 0.0
0 0 0.0
0.0643787 -0.00256568 0.0
0.136776 -0.0134222 0.0
0.109421 -0.00842358 0.0
0.133091 0.0114897 0.0
0.160022 0.0125523 0.0
0.0587661 0.00241631 0.0
0.102589 0.00755786 0.0
0 0 0.0
0.18361 -0.0149827 0.0
0.16086 -0.015976 0.0
0.238114 0.00265785 0.0
0.238951 -0.000351573 0.0
0.219193 -0.0100125 0.0
0.22894 -0.007529 0.0
0.235259 -0.00402504 0.0
0.219377 0.009017 0.0
0.230029 0.0062156 0.0
0.183492 0.0137865 0.0
0.203132 0.0122162 0.0
0.202787 -0.0136 0.0
0 0 0.0
0.0692671 -0.00259114 0.0
0.141741 -0.0142248 0.0
0.115644 -0.00844311 0.0
0.135558 0.0129205 0.0
0.160118 0.0151323 0.0
0.0635673 0.00252488 0.0
0.108033 0.00820491 0.0
0 0 0.0
0.16214 -0.0175921 0.0
0.181991 -0.0180234 0.0
0.234753 0.00336985 0.0
0.235203 -0.000404699 0.0
0.225878 -0.00879684 0.0
0.214621 -0.0129926 0.0
0.23122 -0.00485818 0.0
0.226434 0.0077148 0.0
0.216759 0.0108047 0.0
0.18199 0.0164178 0.0
0.200366 0.0147713 0.0
0.200031 -0.0160891 0.0
0 0 0.0
0.0734735 -0.00237324 0.0
0.146123 -0.0139968 0.0
0.122006 -0.00788249 0.0
0.13956 0.0138057 0.0
0.161123 0.0169149 0.0
0 0 0.0
0.114136 0.00820847 0.0
0.0680018 0.00246637 0.0
0.181342 -0.0192733 0.0
0.164417 -0.0180601 0.0
0.21147 -0.0144423 0.0
0.23063 0.00410421 0.0
0.230702 -0.000455537 0.0
0.227587 -0.00545283 0.0
0.222514 -0.00992252 0.0
0.222171 0.0090743 0.0
0.21307 0.0127937 0.0
0.180705 0.0184553 0.0
0.197555 0.0167078 0.0
0.197378 -0.0178328 0.0
0 0 0.0
0.0776641 -0.00198139 0.0
0.127438 -0.0070193 0.0
0.151584 -0.0129367 0.0
0.145174 0.0135927 0.0
0.163085 0.0175372 0.0
0 0 0.0
0.0726568 0.00225441 0.0
0.119679 0.00777352 0.0
0.181406 -0.0193208 0.0
0.167531 -0.0172638 0.0
0.208306 -0.0153329 0.0
0.215856 -0.011188 0.0
0.225787 0.00470297 0.0
0.225501 -0.000525424 0.0
0.223606 -0.00591016 0.0
0.217451 0.00999115 0.0
0.209144 0.0141651 0.0
0.180567 0.0186908 0.0
0.195083 0.0175363 0.0
0.195157 -0.0183835 0.0
0 0 0.0
0.0810868 -0.0015589 0.0
0.15805 -0.0108795 0.0
0.133465 -0.00564434 0.0
0.149756 0.012684 0.0
0.165903 0.0169222 0.0
0.0763969 0.00194447 0.0
0 0 0.0
0.12618 0.00672525 0.0
0.171113 -0.0154604 0.0
0.182345 -0.0177913 0.0
0.203424 -0.015252 0.0
0.211114 -0.0112157 0.0
0.218218 -0.00615969 0.0
0.217935 0.00503655 0.0
0.219897 -0.000593612 0.0
0.212573 0.0101771 0.0
0.203975 0.0144303 0.0
0.181142 0.0174155 0.0
0.193158 0.0170384 0.0
0.193495 -0.0176106 0.0
0 0 0.0
0.0838937 -0.00119879 0.0
0.137932 -0.0044439 0.0
0.174792 -0.0130227 0.0
0.162315 -0.00915027 0.0
0.155149 0.0109594 0.0
0.168601 0.0156312 0.0
0.0796337 0.00151531 0.0
0 0 0.0
0.13101 0.00563493 0.0
0.1926 -0.0161164 0.0
0.183441 -0.0161513 0.0
0.207534 -0.0106339 0.0
0.20048 -0.0139563 0.0
0.210506 -0.00585939 0.0
0.214271 -0.000681311 0.0
0.213799 0.00482864 0.0
0.207929 0.00955422 0.0
0.201291 0.0135757 0.0
0.182038 0.0158223 0.0
0.172868 0.012734 0.0
0.191843 0.0153354 0.0
0 0 0.0
0.141217 -0.00339518 0.0
0.0859031 -0.000920415 0.0
0.177662 -0.0108921 0.0
0.167323 -0.00684375 0.0
0.160151 0.0088576 0.0
0 0 0.0
0.0821614 0.0010942 0.0
0.13585 0.00420893 0.0
0.192091 -0.0140812 0.0
0.185331 -0.0127644 0.0
0.204371 -0.00973306 0.0
0.198087 -0.0119903 0.0
0.206963 -0.00540655 0.0
0.209095 -0.000772239 0.0
0.209822 0.00437351 0.0
0.175585 0.0105571 0.0
0.191202 0.0132139 0.0
0.203864 0.00823777 0.0
0.198955 0.0121125 0.0
0.183394 0.0130919 0.0
0 0 0.0
0.0872095 -0.000658354 0.0
0.144018 -0.00246443 0.0
0.180745 -0.00841467 0.0
0.170819 -0.00509377 0.0
0.139189 0.00300796 0.0
0.165005 0.00642497 0.0
0 0 0.0
0.0841797 0.000717556 0.0
0.191886 -0.0114291 0.0
0.18699 -0.0100319 0.0
0.201041 -0.00824066 0.0
0.196352 -0.00981071 0.0
0.203734 -0.00486403 0.0
0.204567 -0.000912679 0.0
0.203402 0.00305976 0.0
0.178538 0.007834 0.0
0.200444 0.00650705 0.0
0.190813 0.0108142 0.0
0.195992 0.00894127 0.0
0.185207 0.00938782 0.0
0 0 0.0
0.146196 -0.00168586 0.0
0.0884004 -0.000428772 0.0
0.183704 -0.00590674 0.0
0.17347 -0.0037162 0.0
0.141482 0.00206201 0.0
0.168361 0.00451705 0.0
0 0 0.0
0.0852127 0.000514996 0.0
0.1884 -0.0076418 0.0
0.191894 -0.00893326 0.0
0.198479 -0.00672328 0.0
0.200404 -0.00413685 0.0
0.195117 -0.00773823 0.0
0.20097 -0.0010637 0.0
0.200082 0.00202443 0.0
0.197804 0.00470397 0.0
0.198855 -0.00246085 0.0
0.181008 0.0054484 0.0
0.194516 0.00650816 0.0
0.190624 0.00719631 0.0
0.186211 0.00730431 0.0
0 0 0.0
0.147529 -0.00125646 0.0
0.0891344 -0.000345802 0.0
0.18532 -0.00464082 0.0
0.17547 -0.00270955 0.0
0.143233 0.00123768 0.0
0.170517 0.00314686 0.0
0 0 0.0
0.0859886 0.000270649 0.0
0.189606 -0.00574533 0.0
0.192084 -0.00683707 0.0
0.196578 -0.00539914 0.0
0.194307 -0.00603767 0.0
0.197003 -0.00329598 0.0
0.198589 6.82574e-05 0.0
0.19723 0.00238275 0.0
0.194964 0.00414438 0.0
0.197145 -0.00135614 0.0
0.182819 0.00348628 0.0
0.192132 0.00506726 0.0
0.189848 0.00496704 0.0
0.187518 0.00436436 0.0
0 0 0.0
0.1486 -0.000964326 0.0
0.0896682 -0.000266189 0.0
0.186844 -0.00347894 0.0
0.176955 -0.00205146 0.0
0.172551 0.00171353 0.0
0.144348 0.000621562 0.0
0 0 0.0
0.0865043 7.55419e-05 0.0
0.190584 -0.00437743 0.0
0.192309 -0.00524888 0.0
0.195449 -0.00292873 0.0
0.1938 -0.00477174 0.0
0.195272 -0.00437378 0.0
0.196409 0.000559381 0.0
0.194916 0.00213229 0.0
0.192899 0.00312856 0.0
0.195449 -0.00157882 0.0
0.184129 0.00199462 0.0
0.190623 0.00340107 0.0
0.188272 0.00256541 0.0
0 0 0.0
0.0900174 -0.00024284 0.0
0.149454 -0.000809983 0.0
0.177922 -0.00171124 0.0
0.191356 -0.0034795 0.0
0.188018 -0.00273325 0.0
0.173665 0.00080829 0.0
0.14496 0.00020451 0.0
0.0865348 4.95851e-06 0.0
0 0 0.0
0.193554 -0.00404945 0.0
0.192577 -0.00416374 0.0
0.194607 -0.00277846 0.0
0.194386 -0.00369167 0.0
0.192269 0.00157636 0.0
0.194847 -0.000239129 0.0
0.193732 0.000870611 0.0
0.194284 -0.00183973 0.0
0.188763 0.00120403 0.0
0.185066 0.000697507 0.0
0.190605 0.00137755 0.0
0 0 0.0
0.0905071 -0.000233639 0.0
0.150174 -0.000767226 0.0
0.178816 -0.00148896 0.0
0.19187 -0.00306136 0.0
0.189119 -0.00228639 0.0
0.174265 0.000167157 0.0
0.145243 -0.000118423 0.0
0.0864886 -7.54601e-05 0.0
0 0 0.0
0.174641 -0.000302742 0.0
0.193415 -0.00357323 0.0
0.192913 -0.00338243 0.0
0.193653 -0.00323002 0.0
0.193982 -0.00272943 0.0
0.191677 1.93277e-05 0.0
0.192901 -0.000137137 0.0
0.193762 -0.000917184 0.0
0.19348 -0.00213953 0.0
0.189065 0.00019073 0.0
0.185538 -5.85503e-05 0.0
0.19056 0.000245626 0.0
0 0 0.0
0.0909448 -0.000231929 0.0
0.150823 -0.000806553 0.0
0.179564 -0.00146487 0.0
0.192424 -0.00277625 0.0
0.189841 -0.00217777 0.0
0.0862285 -0.000133376 0.0
0.14526 -0.000328779 0.0
0 0 0.0
0.174652 -0.000595872 0.0
0.193365 -0.00330921 0.0
0.193191 -0.00315402 0.0
0.193382 -0.00318875 0.0
0.193424 -0.00281299 0.0
0.191394 -0.000705259 0.0
0.1923 -0.000947899 0.0
0.192933 -0.00249072 0.0
0.19273 -0.00175395 0.0
0.189135 -0.000393868 0.0
0.185701 -0.000620033 0.0
0.190457 -0.000616334 0.0
0 0 0.0
0.091472 -0.000275498 0.0
0.151415 -0.000910614 0.0
0.180319 -0.00156989 0.0
0.19302 -0.00276215 0.0
0.193462 -0.00318004 0.0
0.190466 -0.00225971 0.0
0.0860616 -0.000187328 0.0
0.145037 -0.000488527 0.0
0 0 0.0
0.174555 -0.000868775 0.0
0.193407 -0.00332648 0.0
0.193252 -0.00330093 0.0
0.193061 -0.00303389 0.0
0.192627 -0.00279158 0.0
0.191142 -0.00131062 0.0
0.191839 -0.00163213 0.0
0.192258 -0.0022819 0.0
0.185732 -0.00106048 0.0
0.189127 -0.00101835 0.0
0.190295 -0.00129682 0.0
0 0 0.0
0.0919987 -0.000378656 0.0
0.152171 -0.00106633 0.0
0.181027 -0.0017954 0.0
0.193377 -0.00291371 0.0
0.193736 -0.00338981 0.0
0.191074 -0.00247804 0.0
0.0857421 -0.000240644 0.0
0.14474 -0.000613703 0.0
0 0 0.0
0.18554 -0.00134812 0.0
0.144272 -0.000711822 0.0
0.174196 -0.00112619 0.0
0.193511 -0.00360417 0.0
0.193176 -0.00350172 0.0
0.192735 -0.00356385 0.0
0.192392 -0.00312092 0.0
0.191967 -0.0026903 0.0
0.190852 -0.00193651 0.0
0.191339 -0.00246664 0.0
0.188935 -0.00163184 0.0
0.190124 -0.00179332 0.0
0.193626 -0.00393265 0.0
0 0 0.0
0.0926635 -0.00044722 0.0
0.181799 -0.00210325 0.0
0.153 -0.00129184 0.0
0.194042 -0.00379858 0.0
0.193936 -0.00335153 0.0
0.19166 -0.00283738 0.0
0.0853949 -0.000266633 0.0
0 0 0.0
0.188768 -0.00196189 0.0
0.185297 -0.00167362 0.0
0.173868 -0.00133871 0.0
0.0847978 -0.000258141 0.0
0.143836 -0.000820511 0.0
0.193147 -0.00391553 0.0
0.192619 -0.00394857 0.0
0.192125 -0.00362682 0.0
0.191955 -0.00406498 0.0
0.19171 -0.00310654 0.0
0.190545 -0.0025074 0.0
0.191001 -0.00303689 0.0
0.189884 -0.00223077 0.0
0.193728 -0.0043701 0.0
0.0933797 -0.000550016 0.0
0 0 0.0
0.182444 -0.00242999 0.0
0.153913 -0.00155791 0.0
0.194347 -0.00436136 0.0
0.194299 -0.00374314 0.0
0.192315 -0.00332611 0.0
0 0 0.0
0.188425 -0.00236391 0.0
0.184782 -0.00203857 0.0
0.173358 -0.00150346 0.0
0.0843839 -0.000298103 0.0
0.143199 -0.000928246 0.0
0.193139 -0.00472714 0.0
0.192524 -0.00439144 0.0
0.191778 -0.00454087 0.0
0.191281 -0.00393205 0.0
0.190213 -0.00304927 0.0
0.190672 -0.00361701 0.0
0.189451 -0.00287066 0.0
0.193909 -0.00506284 0.0
0 0 0.0
0.0944368 -0.00065916 0.0
0.183343 -0.00292758 0.0
0.154932 -0.00186917 0.0
0.192986 -0.00395248 0.0
0.194684 -0.00509852 0.0
0.194926 -0.00456258 0.0
0 0 0.0
0 0 0.0
0.187997 -0.00277091 0.0
0.184347 -0.00235635 0.0
0.172824 -0.00170862 0.0
0.142512 -0.00104068 0.0
0.0838405 -0.000353843 0.0
0.193143 -0.00547962 0.0
0.192388 -0.00508536 0.0
0.190381 -0.00410071 0.0
0.191539 -0.00525985 0.0
0.190959 -0.00459015 0.0
0.18983 -0.00360537 0.0
0.189016 -0.00335956 0.0
0.193132 -0.00619936 0.0
0.194047 -0.00592204 0.0
0.0957278 -0.000804805 0.0
0.156202 -0.00226294 0.0
0.184421 -0.00356189 0.0
0.193662 -0.00457742 0.0
0.195036 -0.00600076 0.0
0.195337 -0.00523523 0.0
0 0 0.0
0 0 0.0
0.183801 -0.00260372 0.0
0.187315 -0.00328018 0.0
0.141757 -0.00114442 0.0
0.171982 -0.00195439 0.0
0.0831968 -0.000387947 0.0
0.192178 -0.00627796 0.0
0.191242 -0.00609446 0.0
0.18852 -0.00387126 0.0
0.190053 -0.00461055 0.0
0.19069 -0.00515067 0.0
0.189212 -0.00439335 0.0
0.193106 -0.00699104 0.0
0.194267 -0.00737304 0.0
0.195386 -0.00712973 0.0
0.0972294 -0.00104237 0.0
0.15786 -0.00279215 0.0
0.185818 -0.00453556 0.0
0.19451 -0.00549516 0.0
0.196075 -0.00656189 0.0
0 0 0.0
0 0 0.0
0.182967 -0.00299502 0.0
0.186692 -0.00372604 0.0
0.140851 -0.00127914 0.0
0.171155 -0.00218125 0.0
0.0824852 -0.000420193 0.0
0.190382 -0.00575789 0.0
0.190885 -0.00702408 0.0
0.191931 -0.00731134 0.0
0.187926 -0.00440724 0.0
0.189593 -0.00531019 0.0
0.188658 -0.00504313 0.0
0.18596 -0.00419316 0.0
0.192945 -0.00868215 0.0
0 0 0.0
0.194318 -0.00873942 0.0
0.196723 -0.00790258 0.0
0.195711 -0.00846328 0.0
0.0990549 -0.00129801 0.0
0.187176 -0.00543001 0.0
0.160091 -0.00361041 0.0
0.195698 -0.00700215 0.0
0 0 0.0
0 0 0.0
0 0 0.0
0 0 0.0
0 0 0.0
0.0817689 -0.000452012 0.0
0.170299 -0.00242386 0.0
0.182174 -0.00334789 0.0
0.140014 -0.00138864 0.0
0.189909 -0.00660417 0.0
0.190422 -0.00808721 0.0
0.19163 -0.00848496 0.0
0.188121 -0.0055921 0.0
0.187213 -0.00498275 0.0
0.188787 -0.00639578 0.0
0.186537 -0.0054984 0.0
0.185293 -0.00455217 0.0
0.192678 -0.0101589 0.0
0.194316 -0.0102749 0.0
0 0 0.0
-0.000495526 0.000277278 0.0
0 0 0.0
-0.000740434 0.00809429 0.0
0.196011 -0.0101121 0.0
0.197233 -0.00910733 0.0
0.101555 -0.00167518 0.0
0.188884 -0.00670476 0.0
0.162582 -0.00460812 0.0
0.196885 -0.00864544 0.0
0 0 0.0
0 0 0.0
0 0 0.0
-0.000603405 0.00598808 0.0
-0.000499865 0.00165066 0.0
-0.00139614 0.00145599 0.0
0 0 0.0
0.0809282 -0.000491173 0.0
0.169384 -0.00262615 0.0
0.181231 -0.00371639 0.0
0.138795 -0.00153128 0.0
0.18934 -0.00755912 0.0
0.189833 -0.00927663 0.0
0.19119 -0.0098108 0.0
0.187505 -0.00618984 0.0
0.188224 -0.00709474 0.0
0.185751 -0.00603039 0.0
0.184062 -0.0051868 0.0
0.192292 -0.0118165 0.0
0.193716 -0.0119312 0.0
0.195204 -0.0118452 0.0
0 0 0.0
-0.00169427 0.000549388 0.0
0 0 0.0
0 0 0.0
-0.00248039 0.0134812 0.0
-0.00245936 0.0105632 0.0
0.196639 -0.0116551 0.0
0.19787 -0.0110798 0.0
0.165276 -0.00578275 0.0
0.104491 -0.00220217 0.0
0.190924 -0.0084039 0.0
0.198075 -0.0107104 0.0
0 0 0.0
-0.00166243 0.00506501 0.0
-0.00205314 0.00767984 0.0
-0.0021087 0.00343459 0.0
-0.00341196 0.00214636 0.0
0 0 0.0
0.0800305 -0.00053249 0.0
0.168245 -0.00287423 0.0
0.180139 -0.00408789 0.0
0.137607 -0.00166501 0.0
0.188633 -0.00860423 0.0
0.189086 -0.0105785 0.0
0.190582 -0.0113059 0.0
0.186326 -0.00724275 0.0
0.187574 -0.00782072 0.0
0.184695 -0.00669868 0.0
0.179014 -0.00448791 0.0
0.182953 -0.0057199 0.0
0.191819 -0.0133028 0.0
0.193959 -0.0135119 0.0
0.196239 -0.0137326 0.0
0 0 0.0
-0.00368252 0.000712388 0.0
0 0 0.0
0 0 0.0
0 0 0.0
0 0 0.0
-0.00457761 0.00962889 0.0
-0.000908885 0.0123156 0.0
-0.00269342 0.0160836 0.0
-0.00545994 0.0167871 0.0
-0.00456687 0.013312 0.0
0 0 0.0
-0.000629018 0.0205136 0.0
0.19851 -0.0142084 0.0
0.199108 -0.0127582 0.0
0 0 0.0
0.108759 -0.00305946 0.0
0.169032 -0.00742014 0.0
0.193733 -0.0112545 0.0
0 0 0.0
0 0 0.0
-0.00395644 0.00677461 0.0
-0.00457609 0.00439404 0.0
-0.00585591 0.00233173 0.0
0 0 0.0
0.0789996 -0.000574978 0.0
0.166796 -0.00316822 0.0
0.136269 -0.00179647 0.0
0.177896 -0.00478677 0.0
0.187769 -0.00974119 0.0
0.188391 -0.0116362 0.0
0.189778 -0.0129801 0.0
0.185445 -0.00791977 0.0
0.186621 -0.0087904 0.0
0.1835 -0.00738152 0.0
0.181968 -0.00611191 0.0
0.194858 -0.0152171 0.0
0.191172 -0.0149354 0.0
0.193215 -0.0166957 0.0
0.195983 -0.017237 0.0
0.198837 -0.0174856 0.0
0 0 0.0
-0.00512813 0.000644633 0.0
-0.000880904 0.0196049 0.0
-0.0032797 0.0273616 0.0
-0.00103683 0.0151823 0.0
-0.00659411 0.0110539 0.0
-0.00829266 0.00790598 0.0
-0.0035462 0.0210104 0.0
-0.00648572 0.0206923 0.0